Job Toru-SiPh3-NTf-Type-II-Z-1-chkp-scan-unrestrained-2-19-3-copy-SPE started on tethys at Wed Mar 29 17:00:33 2017
jobid: tethys-0-58dbda1e

  +--------------------------------------------------------------------+
  |  Jaguar version 9.5, release  11                                   |
  |                                                                    |
  |  Copyright Schrodinger, Inc.                                       |
  |  All Rights Reserved.                                              |
  |                                                                    |
  |  The following have contributed to Jaguar (listed alphabetically): |
  |  Mike Beachy, Art Bochevarov, Dale Braden, Yixiang Cao,            |
  |  Chris Cortis, Rich Friesner, Bill Goddard, Hod Greeley,           |
  |  Tom Hughes, Leif Jacobson, Jean-Marc Langlois,                    |
  |  Daniel Mainz, Rob Murphy, Dean Philipp, Tom Pollard,              |
  |  Murco Ringnalda, Mark Watson, Haoyu Yu.                           |
  |                                                                    |
  |  Use of this program should be acknowledged in publications as:    |
  |                                                                    |
  |  Jaguar, version 9.5, Schrodinger, Inc., New York, NY, 2017.       |
  |                                                                    |
  |  A. D. Bochevarov, E. Harder, T. F. Hughes, J. R. Greenwood,       |
  |  D. A. Braden, D. M. Philipp, D. Rinaldo, M. D. Halls,             |
  |  J. Zhang, R. A. Friesner, "Jaguar: A High-Performance Quantum     |
  |  Chemistry Software Program with Strengths in Life and Materials   |
  |  Sciences", Int. J. Quantum Chem., 2013, 113(18), 2110-2142.       |
  +--------------------------------------------------------------------+
  
  start of program pre
  
  Job name: Toru-SiPh3-NTf-Type-II-Z-1-chkp-scan-unrestrained-2-19-3-copy-SPE
  Executables used: /usr/local/shared/schrodinger/current/jaguar-v9.5/bin/Linux-x86_64
  Temporary files : /scratch/ab2144/Toru-SiPh3-NTf-Type-II-Z-1-chkp-scan-unrestrained-2-19-3-copy-SPE
  Maestro file (input):  Toru-SiPh3-NTf-Type-II-Z-1-chkp-scan-unrestrained-2-19-3-copy-SPE.mae
  Maestro file (output): Toru-SiPh3-NTf-Type-II-Z-1-chkp-scan-unrestrained-2-19-3-copy-SPE.01.mae
  
  basis set:             6-31g**                         
  net molecular charge:    0
  multiplicity:            1
  
  keygrid settings 
    wispc.....   7.500E-01
    ldens.....   0
    denspc....   7.500E-01
  
   grid     daf set  nls  grid set  Q type
  ------    -------  ---  --------  ------
  coarse       1      1       1        1
  medium       2      2       2        1
  fine         3      2       3        0
  ultrafine    4      2       4        1
  charge       0      1      -1        1
  gradient     5      2       4        1
  density      0      1       0        0
  DFT-fine     0      1     -13        0
  DFT-med.     0      1     -13        0
  DFT-grad     0      1     -13        0
  DFT-der2     0      1       0        0
  DFT-cphf     0      1       0        0
  LMP2-enrg    4      2       4        1
  LMP2-grad    5      2       2        1
  DFT-cphf2    0      1       0        0
  PBF-dens     0      1       0        0
  plotting     0      1       0        0
  Rel-grad     0      1     -17        0
  
  idftgrdm  100
  ndftgrdm   50    0    0
  idftgrdf  111
  ndftgrdf   85    0    0
  idftgrdg  111
  ndftgrdg   80    3    0
  idftgrdu  433
  ndftgrdu  105    0    0
  idftgrdd  433
  ndftgrdd  105    0    0
  idftgrdc  433
  ndftgrdc   26    0    0
  idftgrdp  433
  ndftgrdp   18    0    0
  
  number of basis functions....         1680
  
 Input geometry:
                                   angstroms
  atom               x                 y                 z
  C1            3.5722000000      4.6044000000      0.4105000000 
  C2            3.7464000000      3.2000000000      0.3672000000 
  C3            4.6662000000      5.4654000000      0.3045000000 
  C4            5.0515000000      2.6955000000      0.1487000000 
  C5            2.6550000000      2.2941000000      0.5159000000 
  C6            6.1439000000      3.5739000000      0.0525000000 
  C7            5.2558000000      1.3241000000      0.0089000000 
  C8            5.9498000000      4.9517000000      0.1372000000 
  C9            2.8681000000      0.9043000000      0.2502000000 
  C10           1.3125000000      2.8228000000      0.9124000000 
  C11           4.1784000000      0.4383000000      0.0171000000 
  O12           1.8772000000     -0.0574000000      0.2715000000 
  Si13          4.4859000000     -1.3799000000     -0.2940000000 
  C14           1.1039000000      3.5594000000      2.1052000000 
  C15           0.2483000000      2.6691000000      0.0087000000 
  C16          -0.1117000000      4.2694000000      2.2791000000 
  C17           2.0691000000      3.5988000000      3.1324000000 
  C18          -1.0942000000      4.2315000000      1.2810000000 
  C19          -0.3237000000      5.0191000000      3.4469000000 
  C20          -0.9268000000      3.4271000000      0.1491000000 
  Si21         -2.2751000000      3.3928000000     -1.1443000000 
  O22           0.3137000000      1.6725000000     -0.9259000000 
  C23           1.8398000000      4.3430000000      4.2917000000 
  C24           0.6496000000      5.0540000000      4.4468000000 
  P25           0.3518000000      0.2037000000     -0.2171000000 
  O26          -0.0231000000     -0.8091000000     -1.2725000000 
  C27           6.2994000000     -1.7673000000     -0.4249000000 
  C28           3.7158000000     -2.2813000000      1.1392000000 
  C29           3.7274000000     -1.8871000000     -1.9165000000 
  C30          -3.7619000000      2.4613000000     -0.5158000000 
  C31          -2.7279000000      5.1618000000     -1.5101000000 
  C32          -1.6487000000      2.5792000000     -2.7017000000 
  C33           7.0345000000     -1.2674000000     -1.5108000000 
  C34           6.9363000000     -2.5853000000      0.5212000000 
  C35           4.0501000000     -1.9064000000      2.4491000000 
  C36           2.7627000000     -3.2886000000      0.9331000000 
  C37           3.8817000000     -3.2059000000     -2.3695000000 
  C38           3.0507000000     -0.9567000000     -2.7223000000 
  C39          -4.8142000000      2.1542000000     -1.3935000000 
  C40          -3.8458000000      2.0577000000      0.8248000000 
  C41          -4.0698000000      5.5674000000     -1.5901000000 
  C42          -1.7116000000      6.1175000000     -1.6686000000 
  C43          -1.9904000000      1.2482000000     -2.9855000000 
  C44          -0.7537000000      3.2515000000     -3.5486000000 
  C45           8.3951000000     -1.5628000000     -1.6357000000 
  C46           9.0269000000     -2.3667000000     -0.6834000000 
  C47           8.2973000000     -2.8793000000      0.3927000000 
  C48           3.4479000000     -2.5426000000      3.5387000000 
  C49           2.5088000000     -3.5554000000      3.3264000000 
  C50           2.1675000000     -3.9288000000      2.0241000000 
  C51           3.3466000000     -3.5948000000     -3.6012000000 
  C52           2.6657000000     -2.6666000000     -4.3931000000 
  C53           2.5163000000     -1.3491000000     -3.9529000000 
  C54          -5.9346000000      1.4558000000     -0.9347000000 
  C55          -6.0184000000      1.0721000000      0.4053000000 
  C56          -4.9767000000      1.3771000000      1.2848000000 
  C57          -4.3871000000      6.9041000000     -1.8508000000 
  C58          -3.3696000000      7.8458000000     -2.0225000000 
  C59          -2.0325000000      7.4530000000     -1.9279000000 
  C60          -1.4642000000      0.6061000000     -4.1094000000 
  C61          -0.5836000000      1.2853000000     -4.9540000000 
  C62          -0.2275000000      2.6067000000     -4.6727000000 
  C63          -3.5525000000     -6.4846000000      1.1609000000 
  C64          -3.0995000000     -5.5076000000      0.2789000000 
  C65          -2.1839000000     -4.5337000000      0.7161000000 
  C66          -1.7219000000     -4.5746000000      2.0451000000 
  C67          -2.1829000000     -5.5576000000      2.9199000000 
  C68          -3.0973000000     -6.5147000000      2.4822000000 
  C69          -1.6150000000     -3.4480000000     -0.1204000000 
  N70          -2.2917000000     -2.6103000000     -0.9633000000 
  S71          -3.8844000000     -2.6609000000     -1.5834000000 
  O72          -3.9910000000     -1.4443000000     -2.3808000000 
  O73          -4.1606000000     -3.9638000000     -2.1929000000 
  C74          -4.9314000000     -2.5299000000     -0.1013000000 
  C75          -6.2650000000     -2.9185000000     -0.2200000000 
  C76          -7.0620000000     -2.7632000000      0.9129000000 
  C77          -6.4877000000     -2.2584000000      2.0797000000 
  C78          -5.1349000000     -1.9156000000      2.0727000000 
  N79          -4.3629000000     -2.0376000000      0.9849000000 
  N80           0.2038000000     -3.3091000000     -2.1081000000 
  C81          -0.4515000000     -3.3766000000     -3.2745000000 
  C82          -1.1245000000     -4.6110000000     -3.3696000000 
  C83          -0.9105000000     -5.2692000000     -2.1702000000 
  C84          -0.1699000000     -4.4014000000     -1.3183000000 
  H85           2.5938000000      5.0537000000      0.5077000000 
  H86           4.5161000000      6.5366000000      0.3475000000 
  H87           7.1474000000      3.1948000000     -0.1018000000 
  H88           6.2603000000      0.9542000000     -0.1437000000 
  H89           6.7948000000      5.6233000000      0.0563000000 
  H90           2.9954000000      3.0447000000      3.0532000000 
  H91          -2.0083000000      4.8025000000      1.4007000000 
  H92          -1.2443000000      5.5727000000      3.5887000000 
  H93           2.5872000000      4.3661000000      5.0742000000 
  H94           0.4785000000      5.6298000000      5.3471000000 
  H95           6.5558000000     -0.6474000000     -2.2589000000 
  H96           6.3890000000     -3.0014000000      1.3554000000 
  H97           4.7710000000     -1.1180000000      2.6273000000 
  H98           2.4756000000     -3.5789000000     -0.0650000000 
  H99           4.4163000000     -3.9328000000     -1.7706000000 
  H100          2.9369000000      0.0722000000     -2.4117000000 
  H101         -4.7658000000      2.4516000000     -2.4337000000 
  H102         -3.0493000000      2.2753000000      1.5204000000 
  H103         -4.8752000000      4.8615000000     -1.4523000000 
  H104         -0.6703000000      5.8359000000     -1.5767000000 
  H105         -2.6308000000      0.6931000000     -2.3182000000 
  H106         -0.4477000000      4.2655000000     -3.3389000000 
  H107          8.9589000000     -1.1703000000     -2.4720000000 
  H108         10.0801000000     -2.5960000000     -0.7815000000 
  H109          8.7860000000     -3.5077000000      1.1260000000 
  H110          3.7071000000     -2.2485000000      4.5474000000 
  H111          2.0413000000     -4.0464000000      4.1700000000 
  H112          1.4358000000     -4.7091000000      1.8608000000 
  H113          3.4619000000     -4.6152000000     -3.9426000000 
  H114          2.2498000000     -2.9693000000     -5.3454000000 
  H115          1.9877000000     -0.6308000000     -4.5662000000 
  H116         -6.7402000000      1.2171000000     -1.6168000000 
  H117         -6.8895000000      0.5381000000      0.7619000000 
  H118         -5.0450000000      1.0840000000      2.3241000000 
  H119         -5.4231000000      7.2105000000     -1.9165000000 
  H120         -3.6173000000      8.8803000000     -2.2222000000 
  H121         -1.2442000000      8.1845000000     -2.0500000000 
  H122         -1.7302000000     -0.4217000000     -4.3178000000 
  H123         -0.1706000000      0.7853000000     -5.8205000000 
  H124          0.4634000000      3.1294000000     -5.3214000000 
  H125         -4.2588000000     -7.2319000000      0.8117000000 
  H126         -3.4509000000     -5.5032000000     -0.7450000000 
  H127         -1.0316000000     -3.8140000000      2.3959000000 
  H128         -1.8232000000     -5.5701000000      3.9441000000 
  H129         -3.4510000000     -7.2843000000      3.1621000000 
  H130         -0.8393000000     -2.8885000000      0.3984000000 
  H131         -6.6505000000     -3.3283000000     -1.1462000000 
  H132         -8.1111000000     -3.0401000000      0.8852000000 
  H133         -7.0748000000     -2.1311000000      2.9829000000 
  H134         -4.6461000000     -1.5198000000      2.9569000000 
  H135          0.5036000000     -2.3934000000     -1.7296000000 
  H136         -0.4262000000     -2.5500000000     -3.9705000000 
  H137         -1.7145000000     -4.9439000000     -4.2103000000 
  H138         -1.2791000000     -6.2434000000     -1.8840000000 
  H139          0.4595000000     -4.7167000000     -0.4988000000 
  H140         -1.8159000000     -1.7123000000     -1.1428000000 
  N141         -0.5872000000      0.2201000000      1.0983000000 
  S142         -0.1174000000     -0.3514000000      2.5096000000 
  O143          1.0639000000      0.2840000000      3.1116000000 
  O144         -0.1945000000     -1.8290000000      2.5791000000 
  C145         -1.5377000000      0.2413000000      3.5546000000 
  F146         -1.5667000000      1.5760000000      3.6131000000 
  F147         -2.7150000000     -0.1941000000      3.0787000000 
  F148         -1.3826000000     -0.2387000000      4.7955000000 
   
  principal moments of inertia:
        amu*angstrom^2:    21055.47488    23955.87622    31784.27411
                g*cm^2: 3.49634343E-36 3.97796634E-36 5.27790223E-36
   
  rotational constants:
               cm^(-1):      0.00080063      0.00070369      0.00053038
                   GHz:      0.02400226      0.02109624      0.01590028
   
  Molecular weight:    1308.28 amu
   
  Stoichiometry: Si2C73PN4H56S2O7F3
[running at reduced cpu priority]
  Molecular Point Group: C1      
  Point Group used: C1
  
  nuclear repulsion energy.......   20947.461113743 hartrees
 
 Non-default options chosen:
   SCF calculation type: DFT(m06-2x)                 
   DFT=M06-2X
   Solvation energy will be computed using PBF
     -solute cavity energy will not be included
     -surface area terms will not be included
   Highest accuracy cutoffs used in SCF
   Solvent: other                                                           
   Internal dielectric constant:    1.000
   Continuum dielectric constant:   2.380
   Solvent probe molecule radius:   2.760
  
 Temporary integer options set:
     73=  2
  
  atom       vdw   vdw2    cov     mass  grid  daf  charge   basis
  C1        1.949  1.900  0.770   12.000    Y    Y      Y    6-31g**
  C2        1.949  1.900  0.770   12.000    Y    Y      Y    6-31g**
  C3        1.949  1.900  0.770   12.000    Y    Y      Y    6-31g**
  C4        1.949  1.900  0.770   12.000    Y    Y      Y    6-31g**
  C5        1.949  1.900  0.770   12.000    Y    Y      Y    6-31g**
  C6        1.949  1.900  0.770   12.000    Y    Y      Y    6-31g**
  C7        1.949  1.900  0.770   12.000    Y    Y      Y    6-31g**
  C8        1.949  1.900  0.770   12.000    Y    Y      Y    6-31g**
  C9        1.949  1.900  0.770   12.000    Y    Y      Y    6-31g**
  C10       1.949  1.900  0.770   12.000    Y    Y      Y    6-31g**
  C11       1.949  1.900  0.770   12.000    Y    Y      Y    6-31g**
  O12       1.702  1.600  0.730   15.995    Y    Y      Y    6-31g**
  Si13      2.217  2.147  1.110   27.977    Y    Y      Y    6-31g**
  C14       1.949  1.900  0.770   12.000    Y    Y      Y    6-31g**
  C15       1.949  1.900  0.770   12.000    Y    Y      Y    6-31g**
  C16       1.949  1.900  0.770   12.000    Y    Y      Y    6-31g**
  C17       1.949  1.900  0.770   12.000    Y    Y      Y    6-31g**
  C18       1.949  1.900  0.770   12.000    Y    Y      Y    6-31g**
  C19       1.949  1.900  0.770   12.000    Y    Y      Y    6-31g**
  C20       1.949  1.900  0.770   12.000    Y    Y      Y    6-31g**
  Si21      2.217  2.147  1.110   27.977    Y    Y      Y    6-31g**
  O22       1.702  1.600  0.730   15.995    Y    Y      Y    6-31g**
  C23       1.949  1.900  0.770   12.000    Y    Y      Y    6-31g**
  C24       1.949  1.900  0.770   12.000    Y    Y      Y    6-31g**
  P25       2.147  2.074  1.060   30.974    Y    Y      Y    6-31g**
  O26       1.702  1.600  0.730   15.995    Y    Y      Y    6-31g**
  C27       1.949  1.900  0.770   12.000    Y    Y      Y    6-31g**
  C28       1.949  1.900  0.770   12.000    Y    Y      Y    6-31g**
  C29       1.949  1.900  0.770   12.000    Y    Y      Y    6-31g**
  C30       1.949  1.900  0.770   12.000    Y    Y      Y    6-31g**
  C31       1.949  1.900  0.770   12.000    Y    Y      Y    6-31g**
  C32       1.949  1.900  0.770   12.000    Y    Y      Y    6-31g**
  C33       1.949  1.900  0.770   12.000    Y    Y      Y    6-31g**
  C34       1.949  1.900  0.770   12.000    Y    Y      Y    6-31g**
  C35       1.949  1.900  0.770   12.000    Y    Y      Y    6-31g**
  C36       1.949  1.900  0.770   12.000    Y    Y      Y    6-31g**
  C37       1.949  1.900  0.770   12.000    Y    Y      Y    6-31g**
  C38       1.949  1.900  0.770   12.000    Y    Y      Y    6-31g**
  C39       1.949  1.900  0.770   12.000    Y    Y      Y    6-31g**
  C40       1.949  1.900  0.770   12.000    Y    Y      Y    6-31g**
  C41       1.949  1.900  0.770   12.000    Y    Y      Y    6-31g**
  C42       1.949  1.900  0.770   12.000    Y    Y      Y    6-31g**
  C43       1.949  1.900  0.770   12.000    Y    Y      Y    6-31g**
  C44       1.949  1.900  0.770   12.000    Y    Y      Y    6-31g**
  C45       1.949  1.900  0.770   12.000    Y    Y      Y    6-31g**
  C46       1.949  1.900  0.770   12.000    Y    Y      Y    6-31g**
  C47       1.949  1.900  0.770   12.000    Y    Y      Y    6-31g**
  C48       1.949  1.900  0.770   12.000    Y    Y      Y    6-31g**
  C49       1.949  1.900  0.770   12.000    Y    Y      Y    6-31g**
  C50       1.949  1.900  0.770   12.000    Y    Y      Y    6-31g**
  C51       1.949  1.900  0.770   12.000    Y    Y      Y    6-31g**
  C52       1.949  1.900  0.770   12.000    Y    Y      Y    6-31g**
  C53       1.949  1.900  0.770   12.000    Y    Y      Y    6-31g**
  C54       1.949  1.900  0.770   12.000    Y    Y      Y    6-31g**
  C55       1.949  1.900  0.770   12.000    Y    Y      Y    6-31g**
  C56       1.949  1.900  0.770   12.000    Y    Y      Y    6-31g**
  C57       1.949  1.900  0.770   12.000    Y    Y      Y    6-31g**
  C58       1.949  1.900  0.770   12.000    Y    Y      Y    6-31g**
  C59       1.949  1.900  0.770   12.000    Y    Y      Y    6-31g**
  C60       1.949  1.900  0.770   12.000    Y    Y      Y    6-31g**
  C61       1.949  1.900  0.770   12.000    Y    Y      Y    6-31g**
  C62       1.949  1.900  0.770   12.000    Y    Y      Y    6-31g**
  C63       1.949  1.900  0.770   12.000    Y    Y      Y    6-31g**
  C64       1.949  1.900  0.770   12.000    Y    Y      Y    6-31g**
  C65       1.949  1.900  0.770   12.000    Y    Y      Y    6-31g**
  C66       1.949  1.900  0.770   12.000    Y    Y      Y    6-31g**
  C67       1.949  1.900  0.770   12.000    Y    Y      Y    6-31g**
  C68       1.949  1.900  0.770   12.000    Y    Y      Y    6-31g**
  C69       1.949  1.900  0.770   12.000    Y    Y      Y    6-31g**
  N70       1.831  1.600  0.750   14.003    Y    Y      Y    6-31g**
  S71       2.070  1.900  1.020   31.972    Y    Y      Y    6-31g**
  O72       1.702  1.600  0.730   15.995    Y    Y      Y    6-31g**
  O73       1.702  1.600  0.730   15.995    Y    Y      Y    6-31g**
  C74       1.949  1.900  0.770   12.000    Y    Y      Y    6-31g**
  C75       1.949  1.900  0.770   12.000    Y    Y      Y    6-31g**
  C76       1.949  1.900  0.770   12.000    Y    Y      Y    6-31g**
  C77       1.949  1.900  0.770   12.000    Y    Y      Y    6-31g**
  C78       1.949  1.900  0.770   12.000    Y    Y      Y    6-31g**
  N79       1.831  1.600  0.750   14.003    Y    Y      Y    6-31g**
  N80       1.831  1.600  0.750   14.003    Y    Y      Y    6-31g**
  C81       1.949  1.900  0.770   12.000    Y    Y      Y    6-31g**
  C82       1.949  1.900  0.770   12.000    Y    Y      Y    6-31g**
  C83       1.949  1.900  0.770   12.000    Y    Y      Y    6-31g**
  C84       1.949  1.900  0.770   12.000    Y    Y      Y    6-31g**
  H85       1.597  1.150  0.320    1.008    Y    Y      Y    6-31g**
  H86       1.597  1.150  0.320    1.008    Y    Y      Y    6-31g**
  H87       1.597  1.150  0.320    1.008    Y    Y      Y    6-31g**
  H88       1.597  1.150  0.320    1.008    Y    Y      Y    6-31g**
  H89       1.597  1.150  0.320    1.008    Y    Y      Y    6-31g**
  H90       1.597  1.150  0.320    1.008    Y    Y      Y    6-31g**
  H91       1.597  1.150  0.320    1.008    Y    Y      Y    6-31g**
  H92       1.597  1.150  0.320    1.008    Y    Y      Y    6-31g**
  H93       1.597  1.150  0.320    1.008    Y    Y      Y    6-31g**
  H94       1.597  1.150  0.320    1.008    Y    Y      Y    6-31g**
  H95       1.597  1.150  0.320    1.008    Y    Y      Y    6-31g**
  H96       1.597  1.150  0.320    1.008    Y    Y      Y    6-31g**
  H97       1.597  1.150  0.320    1.008    Y    Y      Y    6-31g**
  H98       1.597  1.150  0.320    1.008    Y    Y      Y    6-31g**
  H99       1.597  1.150  0.320    1.008    Y    Y      Y    6-31g**
  H100      1.597  1.150  0.320    1.008    Y    Y      Y    6-31g**
  H101      1.597  1.150  0.320    1.008    Y    Y      Y    6-31g**
  H102      1.597  1.150  0.320    1.008    Y    Y      Y    6-31g**
  H103      1.597  1.150  0.320    1.008    Y    Y      Y    6-31g**
  H104      1.597  1.150  0.320    1.008    Y    Y      Y    6-31g**
  H105      1.597  1.150  0.320    1.008    Y    Y      Y    6-31g**
  H106      1.597  1.150  0.320    1.008    Y    Y      Y    6-31g**
  H107      1.597  1.150  0.320    1.008    Y    Y      Y    6-31g**
  H108      1.597  1.150  0.320    1.008    Y    Y      Y    6-31g**
  H109      1.597  1.150  0.320    1.008    Y    Y      Y    6-31g**
  H110      1.597  1.150  0.320    1.008    Y    Y      Y    6-31g**
  H111      1.597  1.150  0.320    1.008    Y    Y      Y    6-31g**
  H112      1.597  1.150  0.320    1.008    Y    Y      Y    6-31g**
  H113      1.597  1.150  0.320    1.008    Y    Y      Y    6-31g**
  H114      1.597  1.150  0.320    1.008    Y    Y      Y    6-31g**
  H115      1.597  1.150  0.320    1.008    Y    Y      Y    6-31g**
  H116      1.597  1.150  0.320    1.008    Y    Y      Y    6-31g**
  H117      1.597  1.150  0.320    1.008    Y    Y      Y    6-31g**
  H118      1.597  1.150  0.320    1.008    Y    Y      Y    6-31g**
  H119      1.597  1.150  0.320    1.008    Y    Y      Y    6-31g**
  H120      1.597  1.150  0.320    1.008    Y    Y      Y    6-31g**
  H121      1.597  1.150  0.320    1.008    Y    Y      Y    6-31g**
  H122      1.597  1.150  0.320    1.008    Y    Y      Y    6-31g**
  H123      1.597  1.150  0.320    1.008    Y    Y      Y    6-31g**
  H124      1.597  1.150  0.320    1.008    Y    Y      Y    6-31g**
  H125      1.597  1.150  0.320    1.008    Y    Y      Y    6-31g**
  H126      1.597  1.150  0.320    1.008    Y    Y      Y    6-31g**
  H127      1.597  1.150  0.320    1.008    Y    Y      Y    6-31g**
  H128      1.597  1.150  0.320    1.008    Y    Y      Y    6-31g**
  H129      1.597  1.150  0.320    1.008    Y    Y      Y    6-31g**
  H130      1.597  1.150  0.320    1.008    Y    Y      Y    6-31g**
  H131      1.597  1.150  0.320    1.008    Y    Y      Y    6-31g**
  H132      1.597  1.150  0.320    1.008    Y    Y      Y    6-31g**
  H133      1.597  1.150  0.320    1.008    Y    Y      Y    6-31g**
  H134      1.597  1.150  0.320    1.008    Y    Y      Y    6-31g**
  H135      1.597  1.150  0.320    1.008    Y    Y      Y    6-31g**
  H136      1.597  1.150  0.320    1.008    Y    Y      Y    6-31g**
  H137      1.597  1.150  0.320    1.008    Y    Y      Y    6-31g**
  H138      1.597  1.150  0.320    1.008    Y    Y      Y    6-31g**
  H139      1.597  1.150  0.320    1.008    Y    Y      Y    6-31g**
  H140      1.597  1.150  0.320    1.008    Y    Y      Y    6-31g**
  N141      1.831  1.600  0.750   14.003    Y    Y      Y    6-31g**
  S142      2.070  1.900  1.020   31.972    Y    Y      Y    6-31g**
  O143      1.702  1.600  0.730   15.995    Y    Y      Y    6-31g**
  O144      1.702  1.600  0.730   15.995    Y    Y      Y    6-31g**
  C145      1.949  1.900  0.770   12.000    Y    Y      Y    6-31g**
  F146      1.736  1.682  0.720   18.998    Y    Y      Y    6-31g**
  F147      1.736  1.682  0.720   18.998    Y    Y      Y    6-31g**
  F148      1.736  1.682  0.720   18.998    Y    Y      Y    6-31g**
  
  Peak memory usage:    768 Mb
  
  end of program pre
   
 Time(pre)  user:        0.9  user+sys:        0.9  wallclock:        1.5
  
  start of program onee
  
  smallest eigenvalue of S:    1.991E-04
  number of canonical orbitals.....         1670
  Peak memory usage:    900 Mb
  
  end of program onee
   
 Time(onee)  user:       17.9  user+sys:       17.9  wallclock:       20.4
  
  start of program hfig
  
  initial wavefunction generated automatically from atomic wavefunctions
 
  Irreducible     Total no   No of occupied orbitals 
  representation  orbitals   Shell_1  Shell_2    ...
  No Symm         1670        340
  ------------------------
  Orbital occupation/shell    1.000
 
  Peak memory usage:    833 Mb
  
  end of program hfig
   
 Time(hfig)  user:       30.4  user+sys:       30.4  wallclock:       35.4
  
  start of program probe
  
  Peak memory usage:    826 Mb
  
  end of program probe
   
 Time(probe)  user:       22.2  user+sys:       22.2  wallclock:       30.8
  
  start of program grid
  
   grid     grid set  grid #  grid sym
  ------    --------  ------  --------
  coarse        0        0        1
  medium        2        1        1
  fine          0        0        1
  ultrafine     4        2        1
  charge       -1        3        1
  gradient      4        2        1
  density       0        0        1
  DFT-fine    -13        4        1
  DFT-med.    -13        4        1
  DFT-grad    -13        4        1
  DFT-der2      0        0        1
  DFT-cphf      0        0        1
  LMP2-enrg     4        2        1
  LMP2-grad     2        1        1
  DFT-cphf2     0        0        1
  PBF-dens      0        0        1
  plotting      0        0        1
  Rel-grad    -17        0        1
  
  number of gridpoints: 
     atom        C1       C2       C3       C4       C5       C6       C7
  grid # 1       96      100       97       97      100       97       95
  grid # 2      333      360      333      355      362      335      334
  grid # 3       35       26       47       50       16       51       30
  grid # 4    48124    48124    48124    48124    48124    48124    48124
   
  number of gridpoints: 
     atom        C8       C9      C10      C11      O12     Si13      C14
  grid # 1       97       99       99       98      108      474       95
  grid # 2      333      354      355      361      426      474      348
  grid # 3       52       16        7       11       30        6       15
  grid # 4    48124    48124    48124    48124    47716    38542    48124
   
  number of gridpoints: 
     atom       C15      C16      C17      C18      C19      C20     Si21
  grid # 1       98       97       95       95       96      100      475
  grid # 2      353      356      331      328      332      363      475
  grid # 3       19       21       21       15       31        9        9
  grid # 4    48124    48124    48124    48124    48124    48124    38542
   
  number of gridpoints: 
     atom       O22      C23      C24      P25      O26      C27      C28
  grid # 1      112       97       96      446      114      100      100
  grid # 2      436      332      332      446      440      363      360
  grid # 3       51       38       41        7       33       17       13
  grid # 4    47716    48124    48124    38640    47716    48124    48124
   
  number of gridpoints: 
     atom       C29      C30      C31      C32      C33      C34      C35
  grid # 1      100      100      100      100       95       96       95
  grid # 2      361      363      366      362      330      334      328
  grid # 3       10       13       27       23       24       32       13
  grid # 4    48124    48124    48124    48124    48124    48124    48124
   
  number of gridpoints: 
     atom       C36      C37      C38      C39      C40      C41      C42
  grid # 1       95       95       95       95       96       96       95
  grid # 2      332      330      331      327      334      335      331
  grid # 3       22       19       17       13       32       42       27
  grid # 4    48124    48124    48124    48124    48124    48124    48124
   
  number of gridpoints: 
     atom       C43      C44      C45      C46      C47      C48      C49
  grid # 1       95       96       96       97       97       95       96
  grid # 2      327      332      332      332      332      330      329
  grid # 3       21       36       44       53       50       25       32
  grid # 4    48124    48124    48124    48124    48124    48124    48124
   
  number of gridpoints: 
     atom       C50      C51      C52      C53      C54      C55      C56
  grid # 1       96       96       96       96       95       96       96
  grid # 2      328      330      328      328      330      330      330
  grid # 3       31       29       30       26       27       36       35
  grid # 4    48124    48124    48124    48124    48124    48124    48124
   
  number of gridpoints: 
     atom       C57      C58      C59      C60      C61      C62      C63
  grid # 1       97       97       97       96       96       96       96
  grid # 2      333      333      332      330      331      332      332
  grid # 3       52       54       47       34       38       41       38
  grid # 4    48124    48124    48124    48124    48124    48124    48124
   
  number of gridpoints: 
     atom       C64      C65      C66      C67      C68      C69      N70
  grid # 1       95       98       95       96       97       91       98
  grid # 2      332      355      336      334      333      324      349
  grid # 3       23       13       26       37       45        6        7
  grid # 4    48124    48124    48124    48124    48124    48124    47928
   
  number of gridpoints: 
     atom       S71      O72      O73      C74      C75      C76      C77
  grid # 1      444      120      120       97       95       96       96
  grid # 2      444      490      479      356      329      329      329
  grid # 3       10      160      157       18       26       25       22
  grid # 4    48492    47716    47716    48124    48124    48124    48124
   
  number of gridpoints: 
     atom       C78      N79      N80      C81      C82      C83      C84
  grid # 1       93      110       97       94       93       94       92
  grid # 2      333      412      346      328      328      329      321
  grid # 3       19       49       13       13       21       22        8
  grid # 4    48124    47928    47928    48124    48124    48124    48124
   
  number of gridpoints: 
     atom       H85      H86      H87      H88      H89      H90      H91
  grid # 1      112      118      116      108      118      112      110
  grid # 2      432      450      443      423      451      433      427
  grid # 3      217      410      351      171      418      232      209
  grid # 4    48426    48426    48426    48426    48426    48426    48426
   
  number of gridpoints: 
     atom       H92      H93      H94      H95      H96      H97      H98
  grid # 1      117      118      118      112      111      112      106
  grid # 2      443      449      450      436      435      435      415
  grid # 3      345      410      417      258      238      254       90
  grid # 4    48426    48426    48426    48426    48426    48426    48426
   
  number of gridpoints: 
     atom       H99     H100     H101     H102     H103     H104     H105
  grid # 1      112      109      112      107      112      110      106
  grid # 2      435      429      433      418      431      425      413
  grid # 3      260      178      237      107      227      186       82
  grid # 4    48426    48426    48426    48426    48426    48426    48426
   
  number of gridpoints: 
     atom      H106     H107     H108     H109     H110     H111     H112
  grid # 1      111      118      118      118      117      117      110
  grid # 2      429      450      451      451      450      448      426
  grid # 3      225      413      420      418      391      361      218
  grid # 4    48426    48426    48426    48426    48426    48426    48426
   
  number of gridpoints: 
     atom      H113     H114     H115     H116     H117     H118     H119
  grid # 1      117      116      113      117      112      112      118
  grid # 2      450      445      434      448      438      431      451
  grid # 3      390      353      239      377      284      240      418
  grid # 4    48426    48426    48426    48426    48426    48426    48426
   
  number of gridpoints: 
     atom      H120     H121     H122     H123     H124     H125     H126
  grid # 1      118      118      112      116      118      118      107
  grid # 2      451      451      431      442      450      449      417
  grid # 3      420      414      221      324      406      398      122
  grid # 4    48426    48426    48426    48426    48426    48426    48426
   
  number of gridpoints: 
     atom      H127     H128     H129     H130     H131     H132     H133
  grid # 1      107      118      118      102      114      117      117
  grid # 2      409      447      450      402      444      451      451
  grid # 3      104      377      419       54      331      416      399
  grid # 4    48426    48426    48426    48426    48426    48426    48426
   
  number of gridpoints: 
     atom      H134     H135     H136     H137     H138     H139     H140
  grid # 1      111      100      109      117      114      109       99
  grid # 2      427      399      429      457      446      421      400
  grid # 3      209       52      173      418      330      154       67
  grid # 4    48426    48426    48426    48426    48426    48426    48426
   
  number of gridpoints: 
     atom      N141     S142     O143     O144     C145     F146     F147
  grid # 1      109      430      120      116       90      519      513
  grid # 2      409      430      488      469      316      519      513
  grid # 3       31        7      140       63        7      145       67
  grid # 4    47928    48492    47716    47716    48124    47062    47062
   
  number of gridpoints: 
     atom      F148    total
  grid # 1      537    18418
  grid # 2      537    57644
  grid # 3      311    19153
  grid # 4    47062  7104526
   
  Peak memory usage:    795 Mb
  
  end of program grid
   
 Time(grid)  user:     1142.6  user+sys:     1142.6  wallclock:     1275.4
  
  start of program rwr
  
  Peak memory usage:    814 Mb
  
  end of program rwr
   
 Time(rwr)  user:       64.1  user+sys:       64.1  wallclock:       69.4
  
  start of program scf
  
 number of electrons..........        680
 number of alpha electrons....        340
 number of beta electrons.....        340
 number of orbitals, total....       1670
 number of doubly-occ'd orbs..        340
 number of open shell orbs....          0
 number of occupied orbitals..        340
 number of virtual orbitals...       1330
 number of hamiltonians.......          1
 number of shells.............          1
 SCF type: DFT=M06-2X
 Energy computed with NOPS off.
  
       i  u  d  i  g                   
       t  p  i  c  r                                 RMS    maximum
       e  d  i  u  i                       energy  density   DIIS  
       r  t  s  t  d       total energy    change  change    error 
  
etot    1  N  N  1  U   -5562.73423382818           3.7E-03  9.3E-02
etot    2  N  Y  1  U   -5531.68943269279 -3.1E+01  1.5E-02  2.0E-01
etot    3  N  Y  1  U   -5378.88347934990 -1.5E+02  1.4E-02  3.1E-01
etot    4  N  Y  1  U   -5557.65180998844  1.8E+02  6.3E-03  9.5E-02
etot    5  N  Y  1  U   -5532.73771690742 -2.5E+01  5.1E-03  1.3E-01
etot    6  N  Y  1  U   -5569.62417582279  3.7E+01  1.4E-03  6.3E-02
etot    7  N  Y  1  U   -5575.23298761318  5.6E+00  6.0E-04  3.0E-02
etot    8  N  Y  1  U   -5575.53833840604  3.1E-01  2.5E-04  1.0E-02
etot    9  N  Y  1  U   -5575.63789191524  1.0E-01  8.9E-05  3.4E-03
etot   10  N  Y  1  U   -5575.64920840686  1.1E-02  5.1E-05  2.4E-03
etot   11  N  Y  1  U   -5575.65479151240  5.6E-03  3.3E-05  1.1E-03
etot   12  N  Y  1  U   -5575.65678779768  2.0E-03  2.1E-05  6.8E-04
etot   13  N  Y  1  U   -5575.65728972550  5.0E-04  6.5E-06  3.4E-04
etot   14  N  N  1  U   -5575.65733947959  5.0E-05  0.0E+00  0.0E+00
  
  
 Energy components, in hartrees:
   (A)  Nuclear repulsion............   20947.46111374299
   (E)  Total one-electron terms.....  -49423.85968669818
   (F)    Electron-nuclear...........  -54960.31020789478
   (H)    Kinetic....................    5536.45052119660
   (I)  Total two-electron terms.....   22900.74123347560
   (J)    Coulomb....................   23552.17353602530
   (K)    Exchange+Correlation.......    -651.43230254970
   (L)  Electronic energy............  -26523.11845322258  (E+I)
   (M)  -V/T.........................       2.00708158018  (-(A+F+I)/H)
   (N)  Total energy.................   -5575.65733947959  (A+L)
   (O)  Gas phase energy.............   -5575.65733947959
  
 SCFE: SCF energy: DFT(m06-2x)     -5575.65733947959 hartrees   iterations:  14
  
 
 HOMO energy:    -0.23423
 LUMO energy:    -0.06796
 
  Orbital energies (hartrees): 
   -90.18403   -90.13607   -78.20490   -67.00313   -66.99933   -25.28467
   -25.28035   -25.27899   -19.68350   -19.68101   -19.66146   -19.65920
   -19.60916   -19.60882   -19.60287   -14.83615   -14.82375   -14.79760
   -14.72491   -10.79554   -10.66927   -10.64306   -10.62278   -10.61967
   -10.61445   -10.60987   -10.60974   -10.60197   -10.59936   -10.59085
   -10.58868   -10.58046   -10.57239   -10.57111   -10.56981   -10.56972
   -10.56763   -10.56696   -10.56401   -10.55832   -10.55448   -10.55126
   -10.55056   -10.55026   -10.55023   -10.54918   -10.54882   -10.54835
   -10.54811   -10.54765   -10.54718   -10.54668   -10.54646   -10.54584
   -10.54579   -10.54574   -10.54511   -10.54506   -10.54394   -10.54383
   -10.54382   -10.54360   -10.54324   -10.54187   -10.54159   -10.54126
   -10.54122   -10.54056   -10.54053   -10.53959   -10.53923   -10.53884
   -10.53853   -10.53819   -10.53743   -10.53739   -10.53728   -10.53719
   -10.53706   -10.53479   -10.53455   -10.53391   -10.53295   -10.53290
   -10.53080   -10.53006   -10.52881   -10.52857   -10.52546   -10.52326
   -10.52154   -10.51674    -8.49403    -8.44465    -6.98431    -6.41652
    -6.41525    -6.41424    -6.36641    -6.36628    -6.36597    -5.53462
    -5.53065    -5.10322    -5.10156    -5.10011    -3.84434    -3.84410
    -3.84389    -3.84037    -3.84011    -3.83999    -1.44783    -1.35757
    -1.35554    -1.25586    -1.22388    -1.19738    -1.17935    -1.14206
    -1.11830    -1.09194    -1.08725    -1.08169    -1.07247    -0.98162
    -0.97732    -0.97277    -0.96645    -0.94824    -0.94503    -0.94208
    -0.93866    -0.93571    -0.93518    -0.93164    -0.91567    -0.90529
    -0.90504    -0.90195    -0.88767    -0.88514    -0.85720    -0.84729
    -0.84622    -0.84239    -0.83641    -0.83454    -0.83305    -0.83168
    -0.82890    -0.82643    -0.82588    -0.82244    -0.82157    -0.82099
    -0.81940    -0.81758    -0.81697    -0.81678    -0.81356    -0.80933
    -0.78451    -0.76934    -0.75704    -0.74903    -0.72618    -0.72200
    -0.70729    -0.70717    -0.70160    -0.69468    -0.69081    -0.68663
    -0.68095    -0.68030    -0.67852    -0.67757    -0.67586    -0.67436
    -0.67312    -0.67239    -0.67097    -0.66882    -0.66862    -0.66482
    -0.66434    -0.66305    -0.66056    -0.65904    -0.65592    -0.65389
    -0.64708    -0.64686    -0.63175    -0.62046    -0.61987    -0.61741
    -0.60586    -0.60040    -0.59583    -0.59104    -0.58273    -0.58249
    -0.57700    -0.57630    -0.57533    -0.57393    -0.57161    -0.57058
    -0.56833    -0.55691    -0.55337    -0.55226    -0.55109    -0.54916
    -0.54504    -0.54343    -0.53962    -0.53491    -0.53306    -0.52937
    -0.52583    -0.52070    -0.51974    -0.51716    -0.51622    -0.51577
    -0.51303    -0.51153    -0.51048    -0.50947    -0.50881    -0.50645
    -0.50532    -0.50467    -0.50333    -0.50251    -0.50168    -0.50046
    -0.50042    -0.49843    -0.49692    -0.49521    -0.49377    -0.49223
    -0.49199    -0.48998    -0.48958    -0.48870    -0.48285    -0.48180
    -0.47986    -0.47865    -0.47833    -0.47698    -0.47505    -0.47416
    -0.47348    -0.47174    -0.47082    -0.46745    -0.46575    -0.46402
    -0.46120    -0.45612    -0.45183    -0.44880    -0.44665    -0.44520
    -0.44235    -0.43993    -0.43866    -0.43615    -0.42889    -0.42682
    -0.42601    -0.42368    -0.42240    -0.41939    -0.41795    -0.41739
    -0.41643    -0.41481    -0.41373    -0.41317    -0.40816    -0.40219
    -0.40216    -0.39907    -0.39691    -0.39419    -0.39361    -0.39273
    -0.39214    -0.38996    -0.38815    -0.38661    -0.38562    -0.38160
    -0.38025    -0.37815    -0.37466    -0.37222    -0.36712    -0.36532
    -0.35549    -0.35180    -0.34959    -0.34700    -0.34378    -0.34271
    -0.34173    -0.33939    -0.33875    -0.33557    -0.33499    -0.33407
    -0.33016    -0.32888    -0.32050    -0.31910    -0.30440    -0.29836
    -0.29697    -0.29567    -0.29460    -0.29224    -0.29214    -0.28901
    -0.28730    -0.28674    -0.28592    -0.28390    -0.27991    -0.27649
    -0.27574    -0.27492    -0.25071    -0.23423    -0.06796    -0.02662
    -0.01770    -0.01323    -0.00473     0.01580     0.01678     0.02049
     0.02129     0.02495
 
  Peak memory usage:   1028 Mb
  
  end of program scf
   
 Time(scf)  user:    37462.2  user+sys:    37462.2  wallclock:    38492.7
  
  start of program ch
  
  gridpoints used for charge fit        16602
    out of a possible maximum of        19153
  
   Electrostatic potential fitting constrained to reproduce
     total charge:                yes
     dipole moment:               no 
     traceless quadrupole moment: no 
     traceless octapole moment:   no 
  
  Atomic charges from electrostatic potential: 
   
 Atom       C1           C2           C3           C4           C5      
 Charge   -0.09645      0.01853     -0.17107      0.22592      0.01719
   
 Atom       C6           C7           C8           C9           C10     
 Charge   -0.23014     -0.40574     -0.11860     -0.05644     -0.41492
   
 Atom       C11          O12          Si13         C14          C15     
 Charge    0.28617     -0.22216     -0.35183      0.34101      0.38272
   
 Atom       C16          C17          C18          C19          C20     
 Charge    0.23412     -0.26470     -0.45300     -0.27888      0.02161
   
 Atom       Si21         O22          C23          C24          P25     
 Charge   -0.00458     -0.34638     -0.15165     -0.12262      1.31004
   
 Atom       O26          C27          C28          C29          C30     
 Charge   -0.70936      0.22022      0.18603      0.14135      0.07090
   
 Atom       C31          C32          C33          C34          C35     
 Charge   -0.03527      0.05207     -0.17497     -0.14700     -0.05619
   
 Atom       C36          C37          C38          C39          C40     
 Charge   -0.16212     -0.20563     -0.03894      0.07113     -0.16920
   
 Atom       C41          C42          C43          C44          C45     
 Charge   -0.04189     -0.02551     -0.02970     -0.22600     -0.14044
   
 Atom       C46          C47          C48          C49          C50     
 Charge   -0.13327     -0.15163     -0.20585     -0.10549     -0.13348
   
 Atom       C51          C52          C53          C54          C55     
 Charge   -0.12771     -0.12827     -0.15747     -0.30670     -0.01431
   
 Atom       C56          C57          C58          C59          C60     
 Charge   -0.18204     -0.18941     -0.08177     -0.20451     -0.15383
   
 Atom       C61          C62          C63          C64          C65     
 Charge   -0.14669     -0.08157     -0.10879     -0.37000      0.76691
   
 Atom       C66          C67          C68          C69          N70     
 Charge   -0.30890     -0.14037     -0.13761     -1.02381      0.09033
   
 Atom       S71          O72          O73          C74          C75     
 Charge    0.72975     -0.45321     -0.45381      0.50240     -0.46794
   
 Atom       C76          C77          C78          N79          N80     
 Charge    0.17403     -0.44650      0.46094     -0.58865      0.13675
   
 Atom       C81          C82          C83          C84          H85     
 Charge   -0.00808     -0.28842     -0.02813     -0.26722      0.09419
   
 Atom       H86          H87          H88          H89          H90     
 Charge    0.14303      0.14444      0.16662      0.12975      0.17852
   
 Atom       H91          H92          H93          H94          H95     
 Charge    0.20463      0.15970      0.14526      0.13482      0.13279
   
 Atom       H96          H97          H98          H99          H100    
 Charge    0.09139      0.09998      0.07067      0.14735      0.05761
   
 Atom       H101         H102         H103         H104         H105    
 Charge    0.05844      0.14794      0.06494      0.09881      0.08503
   
 Atom       H106         H107         H108         H109         H110    
 Charge    0.13061      0.13063      0.13060      0.13851      0.14982
   
 Atom       H111         H112         H113         H114         H115    
 Charge    0.13160      0.10324      0.12404      0.11469      0.12559
   
 Atom       H116         H117         H118         H119         H120    
 Charge    0.16008      0.08950      0.11542      0.13755      0.11876
   
 Atom       H121         H122         H123         H124         H125    
 Charge    0.13576      0.11532      0.11815      0.11433      0.13490
   
 Atom       H126         H127         H128         H129         H130    
 Charge    0.21392      0.20270      0.15310      0.14081      0.47230
   
 Atom       H131         H132         H133         H134         H135    
 Charge    0.21734      0.11099      0.19672      0.00950      0.15394
   
 Atom       H136         H137         H138         H139         H140    
 Charge    0.17131      0.20240      0.15666      0.21201      0.25326
   
 Atom       N141         S142         O143         O144         C145    
 Charge   -0.81973      0.74499     -0.41950     -0.48061      0.29681
   
 Atom       F146         F147         F148    
 Charge   -0.08592     -0.04955     -0.12183
  
  sum of atomic charges:    -0.000000
   
 RMS Error   9.47E-04 hartrees
 
  Peak memory usage:    816 Mb
  
  end of program ch
   
 Time(ch)  user:       18.2  user+sys:       18.2  wallclock:       25.2
  
  start of program post
  
  Writing input files for PBF
  Peak memory usage:    759 Mb
  
  end of program post
   
 Time(post)  user:        0.8  user+sys:        0.8  wallclock:        1.0

  start of program pbf

Pbf Version 4.10

Molecular surface area:      815.79916   [A2]
Reaction field energy:       -16.90290   [kT]
  Peak memory usage: 721 Mb

  end of program pbf

 Time(pbf)  user:       12.1  user+sys:       12.2  wallclock:       12.2
  
  start of program solv
  
   number of surface charges from PBF   13216
   sum of surface charges     -0.00034
   
  nuclear repulsion energy.......   20947.461113743 hartrees
  Peak memory usage:    894 Mb
  
  end of program solv
   
 Time(solv)  user:       36.0  user+sys:       36.0  wallclock:       36.2
  
  start of program scf
  
 Energy computed with NOPS off.
  
       i  u  d  i  g                   
       t  p  i  c  r                                 RMS    maximum
       e  d  i  u  i                       energy  density   DIIS  
       r  t  s  t  d       total energy    change  change    error 
  
etot    1  N  N  1  U   -5575.69310037887           4.9E-05  7.0E-04
etot    2  N  Y  1  U   -5575.69384587709  7.5E-04  1.5E-05  6.8E-04
etot    3  N  Y  1  U   -5575.69403390039  1.9E-04  5.3E-06  4.3E-04
etot    4  N  N  1  U   -5575.69408127241  4.7E-05  0.0E+00  0.0E+00
  
  
 Energy components, in hartrees:
   (A)  Total zero-electron terms....   20950.29372115361
   (B)    Nuclear-nuclear............   20947.46111374299
   (C)    Nuclear-solvent............       2.83260741062
   (E)  Total one-electron terms.....  -49428.37556084800
   (F)    Electron-nuclear...........  -54961.99594265494
   (G)    Electron-solvent...........      -2.87030402783
   (H)    Kinetic....................    5536.49068583476
   (I)  Total two-electron terms.....   22902.38775842198
   (J)    Coulomb....................   23553.83733179408
   (K)    Exchange+Correlation.......    -651.44957337211
   (L)  Electronic energy............  -26525.98780242602  (E+I)
   (N)  Total quantum mech. energy...   -5575.69408127241  (A+L)
   (O)  Gas phase energy.............   -5575.65733947959
   (P)  Solution phase energy........   -5575.67523296381  (Q+R+S)
   (Q)    Total solute energy........   -5575.65638465521  (N-C-G)
   (R)    Total solvent energy.......      -0.01884830860  (C/2+G/2)
   (S)    Solute cavity energy.......       0.00000000000
   (U)  Reorganization energy........       0.00095482438  (Q-O)
   (V)  Solvation energy.............      -0.01789348422  (P-O)
  
 SCFE:  Solution phase energy: DFT(m06-2x)      -5575.67523296381 hartrees
        SCF iterations:   4
  
 
 HOMO energy:    -0.23822
 LUMO energy:    -0.06498
 
  Orbital energies (hartrees): 
   -90.18506   -90.14062   -78.20778   -67.00573   -67.00347   -25.28764
   -25.28581   -25.28553   -19.68670   -19.68483   -19.66513   -19.66137
   -19.61419   -19.61035   -19.61018   -14.83393   -14.82044   -14.79057
   -14.72810   -10.79990   -10.66549   -10.63854   -10.62644   -10.61669
   -10.61375   -10.60807   -10.60670   -10.59465   -10.59333   -10.58447
   -10.58405   -10.57704   -10.56792   -10.56775   -10.56745   -10.56589
   -10.56548   -10.56354   -10.56222   -10.56186   -10.55834   -10.55510
   -10.55393   -10.55380   -10.55193   -10.55107   -10.55092   -10.55087
   -10.55075   -10.54973   -10.54926   -10.54894   -10.54872   -10.54869
   -10.54843   -10.54826   -10.54799   -10.54787   -10.54787   -10.54740
   -10.54690   -10.54641   -10.54596   -10.54582   -10.54577   -10.54494
   -10.54477   -10.54443   -10.54302   -10.54260   -10.54163   -10.54146
   -10.54145   -10.54112   -10.54112   -10.54020   -10.54010   -10.53981
   -10.53923   -10.53919   -10.53836   -10.53723   -10.53686   -10.53643
   -10.53321   -10.53317   -10.53282   -10.53236   -10.53011   -10.52664
   -10.52415   -10.52164    -8.49503    -8.44922    -6.98719    -6.41751
    -6.41633    -6.41518    -6.37096    -6.37086    -6.37055    -5.53723
    -5.53479    -5.10611    -5.10445    -5.10298    -3.84696    -3.84671
    -3.84650    -3.84450    -3.84424    -3.84414    -1.45268    -1.36148
    -1.36142    -1.25788    -1.22738    -1.20241    -1.18286    -1.14475
    -1.11572    -1.08920    -1.08683    -1.08663    -1.07050    -0.98544
    -0.97651    -0.97350    -0.97029    -0.95037    -0.94728    -0.94654
    -0.94191    -0.93771    -0.93640    -0.92900    -0.91941    -0.90900
    -0.90093    -0.89838    -0.88889    -0.88382    -0.85318    -0.85100
    -0.84541    -0.84269    -0.83996    -0.83713    -0.83558    -0.83394
    -0.83321    -0.82884    -0.82841    -0.82575    -0.82503    -0.82422
    -0.82362    -0.82123    -0.81935    -0.81767    -0.81507    -0.81297
    -0.78813    -0.76552    -0.76059    -0.74278    -0.72993    -0.71818
    -0.71064    -0.70500    -0.70294    -0.69715    -0.69096    -0.68785
    -0.68281    -0.68162    -0.68067    -0.68064    -0.67827    -0.67660
    -0.67514    -0.67438    -0.67173    -0.67118    -0.66897    -0.66801
    -0.66675    -0.66628    -0.66269    -0.66193    -0.65942    -0.65185
    -0.65017    -0.64405    -0.63518    -0.62332    -0.61817    -0.61511
    -0.60820    -0.60356    -0.59906    -0.58671    -0.58428    -0.57997
    -0.57922    -0.57855    -0.57779    -0.57646    -0.57420    -0.57252
    -0.56660    -0.55858    -0.55647    -0.55458    -0.55302    -0.55102
    -0.54339    -0.54201    -0.53983    -0.53678    -0.53547    -0.53175
    -0.52455    -0.52321    -0.52257    -0.51966    -0.51754    -0.51662
    -0.51511    -0.51231    -0.51213    -0.51137    -0.51011    -0.50838
    -0.50778    -0.50702    -0.50498    -0.50407    -0.50372    -0.50167
    -0.49993    -0.49803    -0.49724    -0.49632    -0.49538    -0.49407
    -0.49324    -0.49302    -0.49196    -0.48768    -0.48581    -0.48496
    -0.48159    -0.47991    -0.47961    -0.47879    -0.47568    -0.47439
    -0.47382    -0.47295    -0.46939    -0.46853    -0.46790    -0.46558
    -0.46263    -0.45505    -0.45270    -0.45056    -0.45001    -0.44774
    -0.44574    -0.44203    -0.44008    -0.43959    -0.43027    -0.42979
    -0.42752    -0.42597    -0.42459    -0.42233    -0.42033    -0.41925
    -0.41810    -0.41732    -0.41554    -0.41313    -0.40962    -0.40531
    -0.40226    -0.40118    -0.39952    -0.39616    -0.39551    -0.39529
    -0.39410    -0.39338    -0.39070    -0.38920    -0.38743    -0.38484
    -0.38326    -0.38163    -0.37848    -0.37087    -0.36919    -0.36645
    -0.35981    -0.35516    -0.35048    -0.34631    -0.34542    -0.34401
    -0.34274    -0.33937    -0.33920    -0.33881    -0.33841    -0.33646
    -0.33384    -0.32630    -0.32443    -0.31554    -0.30642    -0.30152
    -0.30035    -0.29739    -0.29727    -0.29687    -0.29432    -0.29223
    -0.29041    -0.28972    -0.28796    -0.28688    -0.28494    -0.28089
    -0.27971    -0.27886    -0.25486    -0.23822    -0.06498    -0.02187
    -0.02152    -0.00876    -0.00725     0.01373     0.01661     0.01952
     0.02126     0.02221
 
  Peak memory usage:   1029 Mb
  
  end of program scf
   
 Time(scf)  user:     7714.2  user+sys:     7714.2  wallclock:     7930.7
  
  start of program sole
  
    SCRF                   solvation energy
  iteration          Hartrees            kcal/mol
     0               0.0000000            0.0000
     1              -0.0178935          -11.2283
  
  solvation energy not yet converged... 
  
  Peak memory usage:    813 Mb
  
  end of program sole
   
 Time(sole)  user:        0.2  user+sys:        0.2  wallclock:        0.1
  
  start of program ch
  
  gridpoints used for charge fit        16602
    out of a possible maximum of        16602
  
   Electrostatic potential fitting constrained to reproduce
     total charge:                yes
     dipole moment:               no 
     traceless quadrupole moment: no 
     traceless octapole moment:   no 
  
  Atomic charges from electrostatic potential: 
   
 Atom       C1           C2           C3           C4           C5      
 Charge   -0.09675      0.01570     -0.18026      0.22875      0.01895
   
 Atom       C6           C7           C8           C9           C10     
 Charge   -0.23954     -0.42047     -0.12363     -0.07277     -0.41696
   
 Atom       C11          O12          Si13         C14          C15     
 Charge    0.30861     -0.20488     -0.37983      0.35223      0.36130
   
 Atom       C16          C17          C18          C19          C20     
 Charge    0.23158     -0.27132     -0.46659     -0.28480      0.04912
   
 Atom       Si21         O22          C23          C24          P25     
 Charge   -0.03166     -0.32266     -0.15837     -0.13033      1.27998
   
 Atom       O26          C27          C28          C29          C30     
 Charge   -0.69731      0.22434      0.19721      0.14427      0.07817
   
 Atom       C31          C32          C33          C34          C35     
 Charge   -0.04143      0.07363     -0.17736     -0.14617     -0.05479
   
 Atom       C36          C37          C38          C39          C40     
 Charge   -0.16951     -0.21033     -0.03070      0.07308     -0.17499
   
 Atom       C41          C42          C43          C44          C45     
 Charge   -0.03673     -0.02264     -0.06116     -0.24784     -0.14780
   
 Atom       C46          C47          C48          C49          C50     
 Charge   -0.13927     -0.16242     -0.21485     -0.11284     -0.14116
   
 Atom       C51          C52          C53          C54          C55     
 Charge   -0.13391     -0.13084     -0.17790     -0.31249     -0.01963
   
 Atom       C56          C57          C58          C59          C60     
 Charge   -0.19100     -0.20221     -0.08533     -0.21435     -0.14599
   
 Atom       C61          C62          C63          C64          C65     
 Charge   -0.15937     -0.08051     -0.10630     -0.38459      0.79035
   
 Atom       C66          C67          C68          C69          N70     
 Charge   -0.32046     -0.14303     -0.14409     -1.07192      0.10418
   
 Atom       S71          O72          O73          C74          C75     
 Charge    0.73669     -0.47144     -0.46944      0.51395     -0.47633
   
 Atom       C76          C77          C78          N79          N80     
 Charge    0.17864     -0.44803      0.46194     -0.59980      0.14724
   
 Atom       C81          C82          C83          C84          H85     
 Charge   -0.01140     -0.29246     -0.02698     -0.27190      0.09414
   
 Atom       H86          H87          H88          H89          H90     
 Charge    0.15144      0.15180      0.17241      0.13739      0.18223
   
 Atom       H91          H92          H93          H94          H95     
 Charge    0.21188      0.16603      0.15257      0.14222      0.13615
   
 Atom       H96          H97          H98          H99          H100    
 Charge    0.09015      0.10134      0.07475      0.15184      0.05326
   
 Atom       H101         H102         H103         H104         H105    
 Charge    0.05878      0.14638      0.06302      0.10098      0.10110
   
 Atom       H106         H107         H108         H109         H110    
 Charge    0.13719      0.13816      0.13822      0.14700      0.15574
   
 Atom       H111         H112         H113         H114         H115    
 Charge    0.13845      0.10923      0.13127      0.12224      0.13613
   
 Atom       H116         H117         H118         H119         H120    
 Charge    0.16640      0.09666      0.12145      0.14626      0.12613
   
 Atom       H121         H122         H123         H124         H125    
 Charge    0.14329      0.11521      0.12558      0.12004      0.14128
   
 Atom       H126         H127         H128         H129         H130    
 Charge    0.22184      0.20215      0.15979      0.14903      0.48639
   
 Atom       H131         H132         H133         H134         H135    
 Charge    0.22535      0.12153      0.20597      0.00988      0.14689
   
 Atom       H136         H137         H138         H139         H140    
 Charge    0.17857      0.20941      0.16431      0.21801      0.24788
   
 Atom       N141         S142         O143         O144         C145    
 Charge   -0.80756      0.73956     -0.42825     -0.47204      0.28713
   
 Atom       F146         F147         F148    
 Charge   -0.08450     -0.04206     -0.12320
  
  sum of atomic charges:    -0.000000
   
 RMS Error   9.59E-04 hartrees
 
  Peak memory usage:    816 Mb
  
  end of program ch
   
 Time(ch)  user:       19.0  user+sys:       19.0  wallclock:       20.6
  
  start of program post
  
  Writing input files for PBF
  Peak memory usage:    759 Mb
  
  end of program post
   
 Time(post)  user:        0.8  user+sys:        0.8  wallclock:        1.0

  start of program pbf

Pbf Version 4.10

Molecular surface area:      815.79916   [A2]
Reaction field energy:       -19.15188   [kT]
  Peak memory usage: 721 Mb

  end of program pbf

 Time(pbf)  user:       13.6  user+sys:       13.7  wallclock:       13.7
  
  start of program solv
  
   number of surface charges from PBF   13216
   sum of surface charges     -0.00036
   
  nuclear repulsion energy.......   20947.461113743 hartrees
  Peak memory usage:    894 Mb
  
  end of program solv
   
 Time(solv)  user:       36.1  user+sys:       36.1  wallclock:       36.2
  
  start of program scf
  
 Energy computed with NOPS off.
  
       i  u  d  i  g                   
       t  p  i  c  r                                 RMS    maximum
       e  d  i  u  i                       energy  density   DIIS  
       r  t  s  t  d       total energy    change  change    error 
  
etot    1  N  N  1  U   -5575.69649110622           5.9E-06  8.5E-05
etot    2  N  N  1  U   -5575.69649549753  4.4E-06  0.0E+00  0.0E+00
  
  
 Energy components, in hartrees:
   (A)  Total zero-electron terms....   20950.58227851209
   (B)    Nuclear-nuclear............   20947.46111374299
   (C)    Nuclear-solvent............       3.12116476910
   (E)  Total one-electron terms.....  -49428.70356493276
   (F)    Electron-nuclear...........  -54962.07527730960
   (G)    Electron-solvent...........      -3.16150395221
   (H)    Kinetic....................    5536.53321632905
   (I)  Total two-electron terms.....   22902.42479092313
   (J)    Coulomb....................   23553.88173518650
   (K)    Exchange+Correlation.......    -651.45694426337
   (L)  Electronic energy............  -26526.27877400962  (E+I)
   (N)  Total quantum mech. energy...   -5575.69649549753  (A+L)
   (O)  Gas phase energy.............   -5575.65733947959
   (P)  Solution phase energy........   -5575.67632590598  (Q+R+S)
   (Q)    Total solute energy........   -5575.65615631443  (N-C-G)
   (R)    Total solvent energy.......      -0.02016959155  (C/2+G/2)
   (S)    Solute cavity energy.......       0.00000000000
   (U)  Reorganization energy........       0.00118316516  (Q-O)
   (V)  Solvation energy.............      -0.01898642639  (P-O)
  
 SCFE:  Solution phase energy: DFT(m06-2x)      -5575.67632590598 hartrees
        SCF iterations:   2
  
 
 HOMO energy:    -0.26764
 LUMO energy:    -0.06527
 
  Orbital energies (hartrees): 
   -75.30728   -70.98664   -59.42123   -57.83961   -44.87697   -37.35329
   -28.21043   -27.57627   -25.63915   -25.61608   -23.46822   -22.15367
   -22.08392   -22.04793   -17.04780   -16.45787   -15.27237   -14.90089
   -14.77848   -14.70864   -13.89616   -13.46287   -12.44700   -12.31690
   -12.01587   -11.82502   -11.73867   -11.53014   -11.43528   -11.30696
   -11.24379   -11.23372   -11.22345   -11.05667   -10.99938   -10.98369
   -10.96402   -10.95575   -10.87665   -10.85987   -10.82346   -10.69948
   -10.66693   -10.57576   -10.57126   -10.56059   -10.55627   -10.54812
   -10.54036   -10.54006   -10.53684   -10.53629   -10.52744   -10.52629
   -10.52093   -10.50822   -10.50138   -10.49861   -10.49767   -10.49662
   -10.49393   -10.49338   -10.49321   -10.49251   -10.49135   -10.48721
   -10.46223   -10.44318   -10.43806   -10.43726   -10.38269   -10.38143
   -10.36923   -10.34431   -10.29929   -10.29053   -10.28873   -10.26182
   -10.24819   -10.24148   -10.22534   -10.22109   -10.19743   -10.14668
   -10.14150   -10.09063    -9.98343    -9.91695    -9.91213    -9.88999
    -9.78349    -9.51409    -9.20050    -9.07310    -8.76304    -8.75684
    -8.68047    -8.54529    -7.40538    -7.11690    -7.10850    -6.69386
    -6.62482    -6.62458    -6.51295    -6.43151    -6.24433    -5.83169
    -5.63145    -4.99678    -4.89697    -4.05140    -1.42857    -1.42387
    -1.40179    -1.31715    -1.22886    -1.13881    -1.05079    -1.00201
    -0.97104    -0.95342    -0.94506    -0.91494    -0.90826    -0.90576
    -0.90068    -0.89639    -0.89611    -0.88250    -0.88130    -0.87470
    -0.86996    -0.86351    -0.85264    -0.85249    -0.85229    -0.85157
    -0.85079    -0.84479    -0.84295    -0.83818    -0.83301    -0.82378
    -0.81622    -0.80650    -0.80612    -0.80498    -0.79934    -0.78224
    -0.78050    -0.77409    -0.76879    -0.76851    -0.76784    -0.75526
    -0.75188    -0.74717    -0.73761    -0.72955    -0.71261    -0.70832
    -0.70009    -0.69878    -0.69549    -0.69488    -0.69321    -0.69275
    -0.69231    -0.68718    -0.68339    -0.68308    -0.68135    -0.67926
    -0.67780    -0.67706    -0.67308    -0.67170    -0.66230    -0.66089
    -0.64987    -0.64812    -0.64342    -0.64170    -0.63643    -0.62951
    -0.62596    -0.62034    -0.60959    -0.60237    -0.60104    -0.60043
    -0.59439    -0.59112    -0.58980    -0.58736    -0.58705    -0.58643
    -0.58446    -0.57998    -0.57951    -0.57349    -0.56973    -0.56390
    -0.55779    -0.55315    -0.55163    -0.55002    -0.54930    -0.54821
    -0.54357    -0.54250    -0.54234    -0.53982    -0.53946    -0.53897
    -0.53896    -0.53870    -0.53420    -0.53407    -0.53156    -0.53080
    -0.53071    -0.53063    -0.52987    -0.52981    -0.52599    -0.52406
    -0.51938    -0.51890    -0.51767    -0.51559    -0.51525    -0.51460
    -0.51424    -0.51358    -0.51352    -0.51150    -0.50767    -0.50646
    -0.50581    -0.50503    -0.50481    -0.50378    -0.50306    -0.50270
    -0.50056    -0.49984    -0.49690    -0.49648    -0.49621    -0.49479
    -0.49462    -0.49445    -0.49401    -0.49374    -0.49354    -0.49330
    -0.49134    -0.49074    -0.48925    -0.48844    -0.48735    -0.48698
    -0.48697    -0.48688    -0.48678    -0.48389    -0.48351    -0.48268
    -0.48232    -0.48134    -0.48118    -0.48062    -0.47950    -0.47782
    -0.47666    -0.47588    -0.47537    -0.47486    -0.47441    -0.47437
    -0.47312    -0.46973    -0.46901    -0.46827    -0.46693    -0.46433
    -0.46400    -0.46317    -0.46297    -0.46235    -0.46093    -0.46018
    -0.46005    -0.45887    -0.45810    -0.45777    -0.45722    -0.45628
    -0.45581    -0.45453    -0.45240    -0.45220    -0.45164    -0.45101
    -0.45040    -0.45038    -0.44723    -0.44635    -0.44620    -0.44305
    -0.44185    -0.44170    -0.44152    -0.44114    -0.43772    -0.43702
    -0.43476    -0.43252    -0.43106    -0.43045    -0.42833    -0.42795
    -0.42481    -0.42144    -0.42070    -0.42033    -0.41647    -0.41640
    -0.41168    -0.41116    -0.40719    -0.40057    -0.38387    -0.37058
    -0.36647    -0.35090    -0.30823    -0.26764    -0.06527    -0.02237
    -0.02155    -0.00932    -0.00685     0.01332     0.01610     0.01966
     0.02092     0.02193
 
  Peak memory usage:   1029 Mb
  
  end of program scf
   
 Time(scf)  user:     2579.3  user+sys:     2579.3  wallclock:     2654.3
  
  start of program sole
  
    SCRF                   solvation energy
  iteration          Hartrees            kcal/mol
     0               0.0000000            0.0000
     1              -0.0178935          -11.2283
     2              -0.0189864          -11.9142
  
  solvation energy not yet converged... 
  
  Peak memory usage:    813 Mb
  
  end of program sole
   
 Time(sole)  user:        0.1  user+sys:        0.1  wallclock:        0.1
  
  start of program ch
  
  gridpoints used for charge fit        16602
    out of a possible maximum of        16602
  
   Electrostatic potential fitting constrained to reproduce
     total charge:                yes
     dipole moment:               no 
     traceless quadrupole moment: no 
     traceless octapole moment:   no 
  
  Atomic charges from electrostatic potential: 
   
 Atom       C1           C2           C3           C4           C5      
 Charge   -0.09577      0.01503     -0.18243      0.22855      0.02075
   
 Atom       C6           C7           C8           C9           C10     
 Charge   -0.24117     -0.42285     -0.12430     -0.07511     -0.41659
   
 Atom       C11          O12          Si13         C14          C15     
 Charge    0.31131     -0.20230     -0.38179      0.35448      0.35698
   
 Atom       C16          C17          C18          C19          C20     
 Charge    0.22998     -0.27148     -0.46902     -0.28514      0.05453
   
 Atom       Si21         O22          C23          C24          P25     
 Charge   -0.03377     -0.31857     -0.15988     -0.13182      1.27538
   
 Atom       O26          C27          C28          C29          C30     
 Charge   -0.69538      0.22386      0.19924      0.14464      0.08040
   
 Atom       C31          C32          C33          C34          C35     
 Charge   -0.04322      0.07689     -0.17716     -0.14589     -0.05541
   
 Atom       C36          C37          C38          C39          C40     
 Charge   -0.17127     -0.21108     -0.02876      0.07254     -0.17656
   
 Atom       C41          C42          C43          C44          C45     
 Charge   -0.03547     -0.02213     -0.06598     -0.25141     -0.14878
   
 Atom       C46          C47          C48          C49          C50     
 Charge   -0.13986     -0.16385     -0.21561     -0.11452     -0.14129
   
 Atom       C51          C52          C53          C54          C55     
 Charge   -0.13493     -0.13125     -0.18146     -0.31324     -0.02118
   
 Atom       C56          C57          C58          C59          C60     
 Charge   -0.19108     -0.20418     -0.08598     -0.21581     -0.14495
   
 Atom       C61          C62          C63          C64          C65     
 Charge   -0.16161     -0.08078     -0.10681     -0.38596      0.79364
   
 Atom       C66          C67          C68          C69          N70     
 Charge   -0.32047     -0.14395     -0.14509     -1.07520      0.10616
   
 Atom       S71          O72          O73          C74          C75     
 Charge    0.73746     -0.47380     -0.47325      0.51647     -0.47976
   
 Atom       C76          C77          C78          N79          N80     
 Charge    0.17905     -0.44866      0.46146     -0.59652      0.15103
   
 Atom       C81          C82          C83          C84          H85     
 Charge   -0.01425     -0.29351     -0.02586     -0.27487      0.09401
   
 Atom       H86          H87          H88          H89          H90     
 Charge    0.15265      0.15277      0.17298      0.13852      0.18258
   
 Atom       H91          H92          H93          H94          H95     
 Charge    0.21285      0.16659      0.15346      0.14326      0.13617
   
 Atom       H96          H97          H98          H99          H100    
 Charge    0.08975      0.10143      0.07582      0.15227      0.05229
   
 Atom       H101         H102         H103         H104         H105    
 Charge    0.05826      0.14621      0.06236      0.10113      0.10472
   
 Atom       H106         H107         H108         H109         H110    
 Charge    0.13800      0.13915      0.13925      0.14804      0.15630
   
 Atom       H111         H112         H113         H114         H115    
 Charge    0.13943      0.10971      0.13229      0.12325      0.13787
   
 Atom       H116         H117         H118         H119         H120    
 Charge    0.16709      0.09788      0.12198      0.14745      0.12726
   
 Atom       H121         H122         H123         H124         H125    
 Charge    0.14435      0.11496      0.12662      0.12088      0.14212
   
 Atom       H126         H127         H128         H129         H130    
 Charge    0.22248      0.20173      0.16029      0.15006      0.48823
   
 Atom       H131         H132         H133         H134         H135    
 Charge    0.22615      0.12299      0.20713      0.00938      0.14613
   
 Atom       H136         H137         H138         H139         H140    
 Charge    0.17956      0.21005      0.16487      0.21927      0.24690
   
 Atom       N141         S142         O143         O144         C145    
 Charge   -0.80438      0.73862     -0.42859     -0.47168      0.28569
   
 Atom       F146         F147         F148    
 Charge   -0.08443     -0.04079     -0.12341
  
  sum of atomic charges:     0.000000
   
 RMS Error   9.61E-04 hartrees
 
  Peak memory usage:    816 Mb
  
  end of program ch
   
 Time(ch)  user:       18.0  user+sys:       18.0  wallclock:       19.7
  
  start of program post
  
  Writing input files for PBF
  Peak memory usage:    759 Mb
  
  end of program post
   
 Time(post)  user:        0.7  user+sys:        0.7  wallclock:        1.0

  start of program pbf

Pbf Version 4.10

Molecular surface area:      815.79916   [A2]
Reaction field energy:       -19.41621   [kT]
  Peak memory usage: 721 Mb

  end of program pbf

 Time(pbf)  user:       13.3  user+sys:       13.4  wallclock:       13.4
  
  start of program solv
  
   number of surface charges from PBF   13216
   sum of surface charges     -0.00036
   
  nuclear repulsion energy.......   20947.461113743 hartrees
  Peak memory usage:    894 Mb
  
  end of program solv
   
 Time(solv)  user:       35.8  user+sys:       35.8  wallclock:       36.0
  
  start of program scf
  
 Energy computed with NOPS off.
  
       i  u  d  i  g                   
       t  p  i  c  r                                 RMS    maximum
       e  d  i  u  i                       energy  density   DIIS  
       r  t  s  t  d       total energy    change  change    error 
  
etot    1  N  N  1  U   -5575.69676597924           5.4E-06  1.4E-04
etot    2  N  N  1  U   -5575.69674618869 -2.0E-05  0.0E+00  0.0E+00
  
  
 Energy components, in hartrees:
   (A)  Total zero-electron terms....   20950.60740841736
   (B)    Nuclear-nuclear............   20947.46111374299
   (C)    Nuclear-solvent............       3.14629467437
   (E)  Total one-electron terms.....  -49429.03311322285
   (F)    Electron-nuclear...........  -54962.34069003948
   (G)    Electron-solvent...........      -3.18691099215
   (H)    Kinetic....................    5536.49448780878
   (I)  Total two-electron terms.....   22902.72895861681
   (J)    Coulomb....................   23554.17974713929
   (K)    Exchange+Correlation.......    -651.45078852248
   (L)  Electronic energy............  -26526.30415460604  (E+I)
   (N)  Total quantum mech. energy...   -5575.69674618869  (A+L)
   (O)  Gas phase energy.............   -5575.65733947959
   (P)  Solution phase energy........   -5575.67643802980  (Q+R+S)
   (Q)    Total solute energy........   -5575.65612987091  (N-C-G)
   (R)    Total solvent energy.......      -0.02030815889  (C/2+G/2)
   (S)    Solute cavity energy.......       0.00000000000
   (U)  Reorganization energy........       0.00120960868  (Q-O)
   (V)  Solvation energy.............      -0.01909855021  (P-O)
  
 SCFE:  Solution phase energy: DFT(m06-2x)      -5575.67643802980 hartrees
        SCF iterations:   2
  
 
 HOMO energy:    -0.23840
 LUMO energy:    -0.06423
 
  Orbital energies (hartrees): 
   -90.18426   -90.14047   -78.20738   -67.00576   -67.00344   -25.28711
   -25.28620   -25.28609   -19.68649   -19.68471   -19.66746   -19.66190
   -19.61462   -19.61079   -19.60999   -14.83198   -14.81984   -14.78787
   -14.72710   -10.79995   -10.66356   -10.63742   -10.62620   -10.61717
   -10.61327   -10.60691   -10.60603   -10.59375   -10.59295   -10.58294
   -10.58284   -10.57672   -10.56741   -10.56727   -10.56663   -10.56613
   -10.56492   -10.56260   -10.56210   -10.56175   -10.55772   -10.55504
   -10.55469   -10.55442   -10.55285   -10.55120   -10.55118   -10.55095
   -10.55089   -10.55054   -10.54980   -10.54915   -10.54899   -10.54887
   -10.54848   -10.54844   -10.54842   -10.54837   -10.54825   -10.54769
   -10.54712   -10.54694   -10.54643   -10.54633   -10.54564   -10.54545
   -10.54544   -10.54483   -10.54329   -10.54281   -10.54226   -10.54205
   -10.54177   -10.54119   -10.54088   -10.54015   -10.54014   -10.53988
   -10.53985   -10.53945   -10.53913   -10.53770   -10.53727   -10.53652
   -10.53355   -10.53321   -10.53248   -10.53218   -10.53055   -10.52648
   -10.52412   -10.52163    -8.49432    -8.44908    -6.98681    -6.41678
    -6.41562    -6.41445    -6.37082    -6.37072    -6.37040    -5.53727
    -5.53477    -5.10572    -5.10406    -5.10259    -3.84700    -3.84674
    -3.84654    -3.84449    -3.84422    -3.84412    -1.45279    -1.36171
    -1.36143    -1.25798    -1.22716    -1.20244    -1.18265    -1.14521
    -1.11533    -1.08896    -1.08686    -1.08529    -1.06927    -0.98562
    -0.97618    -0.97264    -0.97062    -0.95057    -0.94746    -0.94694
    -0.94199    -0.93785    -0.93683    -0.92795    -0.91966    -0.90927
    -0.90018    -0.89793    -0.88911    -0.88289    -0.85248    -0.85132
    -0.84559    -0.84236    -0.84019    -0.83728    -0.83588    -0.83406
    -0.83362    -0.82893    -0.82854    -0.82594    -0.82534    -0.82437
    -0.82370    -0.82160    -0.81948    -0.81794    -0.81431    -0.81326
    -0.78837    -0.76464    -0.76053    -0.74170    -0.72996    -0.71725
    -0.71080    -0.70508    -0.70220    -0.69730    -0.69110    -0.68767
    -0.68297    -0.68169    -0.68094    -0.68080    -0.67835    -0.67680
    -0.67510    -0.67404    -0.67187    -0.67129    -0.66889    -0.66814
    -0.66683    -0.66634    -0.66296    -0.66204    -0.65970    -0.65155
    -0.65038    -0.64317    -0.63515    -0.62338    -0.61782    -0.61430
    -0.60837    -0.60376    -0.59923    -0.58591    -0.58442    -0.57998
    -0.57948    -0.57868    -0.57748    -0.57614    -0.57434    -0.57277
    -0.56580    -0.55860    -0.55668    -0.55467    -0.55292    -0.55091
    -0.54319    -0.54162    -0.53956    -0.53669    -0.53541    -0.53179
    -0.52442    -0.52336    -0.52242    -0.51969    -0.51767    -0.51652
    -0.51525    -0.51250    -0.51224    -0.51129    -0.50994    -0.50823
    -0.50791    -0.50696    -0.50512    -0.50428    -0.50391    -0.50156
    -0.49979    -0.49800    -0.49708    -0.49638    -0.49512    -0.49412
    -0.49345    -0.49272    -0.49135    -0.48716    -0.48590    -0.48521
    -0.48178    -0.48000    -0.47962    -0.47918    -0.47593    -0.47427
    -0.47388    -0.47310    -0.46961    -0.46856    -0.46731    -0.46561
    -0.46249    -0.45521    -0.45215    -0.45075    -0.45021    -0.44791
    -0.44595    -0.44222    -0.43996    -0.43974    -0.43058    -0.42996
    -0.42776    -0.42586    -0.42463    -0.42254    -0.42044    -0.41937
    -0.41820    -0.41751    -0.41522    -0.41286    -0.40934    -0.40550
    -0.40226    -0.40119    -0.39967    -0.39633    -0.39559    -0.39553
    -0.39434    -0.39350    -0.39082    -0.38927    -0.38754    -0.38504
    -0.38331    -0.38188    -0.37865    -0.37100    -0.36928    -0.36534
    -0.35986    -0.35535    -0.35062    -0.34627    -0.34427    -0.34409
    -0.34272    -0.33952    -0.33869    -0.33861    -0.33829    -0.33610
    -0.33403    -0.32589    -0.32457    -0.31486    -0.30657    -0.30138
    -0.30069    -0.29795    -0.29726    -0.29721    -0.29407    -0.29231
    -0.29055    -0.28987    -0.28790    -0.28702    -0.28538    -0.28123
    -0.27985    -0.27910    -0.25517    -0.23840    -0.06423    -0.02193
    -0.02068    -0.00906    -0.00625     0.01350     0.01634     0.02015
     0.02119     0.02203
 
  Peak memory usage:   1029 Mb
  
  end of program scf
   
 Time(scf)  user:     2574.2  user+sys:     2574.2  wallclock:     2655.1
  
  start of program sole
  
    SCRF                   solvation energy
  iteration          Hartrees            kcal/mol
     0               0.0000000            0.0000
     1              -0.0178935          -11.2283
     2              -0.0189864          -11.9142
     3              -0.0190986          -11.9845
  
  stopping: solvation energy converged
  
  iterations:   3    sfinal:    -11.9845 kcal/mol
  
  Peak memory usage:    813 Mb
  
  end of program sole
   
 Time(sole)  user:        0.1  user+sys:        0.1  wallclock:        0.1
  
  start of program post
  
  Writing input files for PBF
  Peak memory usage:    759 Mb
  
  end of program post
   
 Time(post)  user:        0.8  user+sys:        0.8  wallclock:        1.0

 Total cpu seconds     user:   51766.350   user+sys:   51766.350
  
 Total elapsed time:    53390 seconds

Job Toru-SiPh3-NTf-Type-II-Z-1-chkp-scan-unrestrained-2-19-3-copy-SPE completed on tethys at Thu Mar 30 07:50:23 2017
