Job MO6-2X-Toru-SiPh3-NTf-Type-I-Z-9-chkp2-unrestrained.mol started on tethys at Thu Nov 24 14:59:26 2016
jobid: tethys-0-5837004d

  +--------------------------------------------------------------------+
  |  Jaguar version 8.4, release  16                                   |
  |                                                                    |
  |  Copyright Schrodinger, Inc.                                       |
  |  All Rights Reserved.                                              |
  |                                                                    |
  |  The following have contributed to Jaguar (listed alphabetically): |
  |  Mike Beachy, Art Bochevarov, Dale Braden, Yixiang Cao,            |
  |  Chris Cortis, Rich Friesner, Bill Goddard, Hod Greeley,           |
  |  Tom Hughes, Jean-Marc Langlois, Daniel Mainz, Rob Murphy,         |
  |  Dean Philipp, Tom Pollard, Murco Ringnalda.                       |
  |                                                                    |
  |  Use of this program should be acknowledged in publications as:    |
  |                                                                    |
  |  Jaguar, version 8.4, Schrodinger, Inc., New York, NY, 2013.       |
  |                                                                    |
  |  A. D. Bochevarov, E. Harder, T. F. Hughes, J. R. Greenwood,       |
  |  D. A. Braden, D. M. Philipp, D. Rinaldo, M. D. Halls,             |
  |  J. Zhang, R. A. Friesner, "Jaguar: A High-Performance Quantum     |
  |  Chemistry Software Program with Strengths in Life and Materials   |
  |  Sciences", Int. J. Quantum Chem., 2013, 113(18), 2110-2142.       |
  +--------------------------------------------------------------------+
  
  start of program pre
  
  Job name: MO6-2X-Toru-SiPh3-NTf-Type-I-Z-9-chkp2-unrestrained.mol
  Executables used: /usr/local/shared/schrodinger/current/jaguar-v84016/bin/Linux-x86_64
  Temporary files : /home/ab2144/.schrodinger/tmp/MO6-2X-Toru-SiPh3-NTf-Type-I-Z-9-chkp2-unrestrained.mol
  Maestro file (input):  MO6-2X-Toru-SiPh3-NTf-Type-I-Z-9-chkp2-unrestrained.mol.mae
  Maestro file (output): MO6-2X-Toru-SiPh3-NTf-Type-I-Z-9-chkp2-unrestrained.mol.01.mae
  
  
  basis set:             6-31g**         
  net molecular charge:    0
  multiplicity:            1
  
  keygrid settings 
    wispc.....   7.500E-01
    ldens.....   0
    denspc....   7.500E-01
  
   grid     daf set  nls  grid set  Q type
  ------    -------  ---  --------  ------
  coarse       1      1       1        1
  medium       2      2       2        1
  fine         3      2       3        0
  ultrafine    4      2       4        1
  charge       0      1      -1        1
  gradient     5      2       4        1
  density      0      1       0        0
  DFT-fine     0      1     -13        0
  DFT-med.     0      1     -13        0
  DFT-grad     0      1     -13        0
  DFT-der2     0      1       0        0
  DFT-cphf     0      1       0        0
  LMP2-enrg    4      2       4        1
  LMP2-grad    5      2       2        1
  DFT-cphf2    0      1       0        0
  PBF-dens     0      1       0        0
  plotting     0      1       0        0
  
  idftgrdm  100
  ndftgrdm   50    0    0
  idftgrdf  111
  ndftgrdf   85    0    0
  idftgrdg  111
  ndftgrdg   80    3    0
  idftgrdu  433
  ndftgrdu  105    0    0
  idftgrdd  433
  ndftgrdd  105    0    0
  idftgrdc  433
  ndftgrdc   26    0    0
  idftgrdp  433
  ndftgrdp   18    0    0
  
  number of basis functions....         1680
  
 Input geometry:
                                   angstroms
  atom               x                 y                 z
  C1           -3.2591000000      4.5564000000      1.2585000000 
  C2           -3.5322000000      3.1063000000      1.0549000000 
  C3           -4.0322000000      5.2827000000      2.0739000000 
  C4           -4.5433000000      2.5282000000      1.7420000000 
  C5           -2.6728000000      2.2661000000      0.1669000000 
  C6           -5.3983000000      3.3442000000      2.6353000000 
  C7           -4.8021000000      1.0818000000      1.6039000000 
  C8           -5.1570000000      4.6504000000      2.7883000000 
  C9           -2.8263000000      0.9264000000      0.1714000000 
  C10          -1.5982000000      2.8793000000     -0.6543000000 
  C11          -4.0097000000      0.3162000000      0.8396000000 
  O12          -1.9548000000      0.1327000000     -0.5295000000 
  Si13         -4.4378000000     -1.4793000000      0.5471000000 
  C14          -1.8607000000      3.8057000000     -1.6018000000 
  C15          -0.1860000000      2.5810000000     -0.2903000000 
  C16          -0.7516000000      4.6307000000     -2.1408000000 
  C17          -3.2297000000      4.0812000000     -2.1032000000 
  C18           0.4876000000      4.4958000000     -1.6491000000 
  C19          -1.0627000000      5.6556000000     -3.1569000000 
  C20           0.7854000000      3.4535000000     -0.6384000000 
  Si21          2.4248000000      3.5022000000      0.2712000000 
  O22           0.0891000000      1.5295000000      0.5492000000 
  C23          -3.4368000000      5.0308000000     -3.0232000000 
  C24          -2.3230000000      5.8385000000     -3.5669000000 
  P25          -0.4441000000      0.0397000000      0.0872000000 
  O26          -0.3836000000     -0.7606000000      1.3546000000 
  C27          -3.0165000000     -2.5098000000      1.1580000000 
  C28          -6.0117000000     -1.9660000000      1.4140000000 
  C29          -4.7924000000     -1.7731000000     -1.2539000000 
  C30           2.0423000000      3.1778000000      2.0640000000 
  C31           3.6707000000      2.2892000000     -0.3786000000 
  C32           3.2241000000      5.1739000000      0.0861000000 
  C33          -2.3120000000     -3.2981000000      0.3287000000 
  C34          -2.6511000000     -2.4533000000      2.5942000000 
  C35          -7.1646000000     -1.3547000000      1.0914000000 
  C36          -6.0263000000     -3.0634000000      2.4128000000 
  C37          -4.8759000000     -0.7535000000     -2.1252000000 
  C38          -5.0871000000     -3.1510000000     -1.7154000000 
  C39           1.0689000000      3.8742000000      2.6761000000 
  C40           2.7613000000      2.1207000000      2.8142000000 
  C41           3.3816000000      1.4842000000     -1.4092000000 
  C42           5.0417000000      2.2863000000      0.1863000000 
  C43           3.7718000000      5.5259000000     -1.0900000000 
  C44           3.3174000000      6.1057000000      1.2376000000 
  C45          -1.2068000000     -4.1279000000      0.8509000000 
  C46          -0.9051000000     -4.1000000000      2.1541000000 
  C47          -1.6567000000     -3.2150000000      3.0669000000 
  C48          -8.4258000000     -1.7418000000      1.7563000000 
  C49          -8.4289000000     -2.7181000000      2.6709000000 
  C50          -7.1719000000     -3.4149000000      3.0101000000 
  C51          -5.2132000000     -1.0116000000     -3.5409000000 
  C52          -5.4523000000     -2.2606000000     -3.9571000000 
  C53          -5.3916000000     -3.3819000000     -2.9983000000 
  C54           0.7354000000      3.6040000000      4.0897000000 
  C55           1.4015000000      2.6615000000      4.7667000000 
  C56           2.4657000000      1.8864000000      4.0982000000 
  C57           4.4077000000      0.5672000000     -1.9496000000 
  C58           5.6425000000      0.5655000000     -1.4347000000 
  C59           5.9772000000      1.4739000000     -0.3198000000 
  C60           4.4272000000      6.8409000000     -1.2447000000 
  C61           4.4934000000      7.6828000000     -0.2073000000 
  C62           3.9155000000      7.2951000000      1.0949000000 
  C63           7.0024000000     -2.7799000000      0.0989000000 
  C64           5.6248000000     -2.8415000000     -0.1239000000 
  C65           4.7513000000     -2.0444000000      0.6275000000 
  C66           5.2995000000     -1.1867000000      1.6019000000 
  C67           6.6682000000     -1.1315000000      1.8246000000 
  C68           7.5301000000     -1.9335000000      1.0702000000 
  C69           3.2720000000     -1.9732000000      0.4572000000 
  N70           2.5408000000     -2.3996000000     -0.6255000000 
  S71           2.6729000000     -3.6712000000     -1.7599000000 
  O72           1.3449000000     -3.7448000000     -2.3507000000 
  O73           3.8704000000     -3.5202000000     -2.5889000000 
  C74           2.9359000000     -5.2009000000     -0.8008000000 
  C75           3.8482000000     -6.1327000000     -1.2940000000 
  C76           3.9127000000     -7.3655000000     -0.6441000000 
  C77           3.0794000000     -7.5988000000      0.4488000000 
  C78           2.2134000000     -6.5842000000      0.8597000000 
  N79           2.1347000000     -5.4011000000      0.2389000000 
  N80           1.5252000000     -1.9481000000      2.6080000000 
  C81           1.8646000000     -1.5727000000      3.8321000000 
  C82           3.0226000000     -2.2829000000      4.2485000000 
  C83           3.3678000000     -3.1112000000      3.2013000000 
  C84           2.4603000000     -2.8798000000      2.1116000000 
  H85          -2.4252000000      5.0387000000      0.7669000000 
  H86          -3.8277000000      6.3355000000      2.2202000000 
  H87          -6.2207000000      2.8852000000      3.1698000000 
  H88          -5.6511000000      0.6586000000      2.1217000000 
  H89          -5.7806000000      5.2451000000      3.4431000000 
  H90          -4.0757000000      3.5060000000     -1.7483000000 
  H91           1.2755000000      5.1409000000     -2.0091000000 
  H92          -0.2734000000      6.2711000000     -3.5720000000 
  H93          -4.4411000000      5.2126000000     -3.3840000000 
  H94          -2.5373000000      6.5954000000     -4.3104000000 
  H95          -2.5381000000     -3.3447000000     -0.7258000000 
  H96          -3.1923000000     -1.8001000000      3.2673000000 
  H97          -7.1853000000     -0.5683000000      0.3466000000 
  H98          -5.1213000000     -3.6004000000      2.6574000000 
  H99          -4.7108000000      0.2681000000     -1.8121000000 
  H100         -5.0569000000     -3.9770000000     -1.0157000000 
  H101          0.5137000000      4.6368000000      2.1433000000 
  H102          3.5279000000      1.5323000000      2.3350000000 
  H103          2.4111000000      1.5206000000     -1.8730000000 
  H104          5.2945000000      2.9498000000      1.0039000000 
  H105          3.7432000000      4.8535000000     -1.9387000000 
  H106          2.9114000000      5.8361000000      2.2017000000 
  H107         -0.6493000000     -4.7650000000      0.1770000000 
  H108         -0.1011000000     -4.7130000000      2.5398000000 
  H109         -1.3930000000     -3.1757000000      4.1158000000 
  H110         -9.3465000000     -1.2334000000      1.5011000000 
  H111         -9.3519000000     -3.0039000000      3.1584000000 
  H112         -7.1817000000     -4.2171000000      3.7366000000 
  H113         -5.2639000000     -0.1870000000     -4.2401000000 
  H114         -5.6978000000     -2.4507000000     -4.9939000000 
  H115         -5.6016000000     -4.3891000000     -3.3341000000 
  H116         -0.0488000000      4.1704000000      4.5750000000 
  H117          1.1594000000      2.4619000000      5.8025000000 
  H118          3.0006000000      1.1225000000      4.6475000000 
  H119          4.1619000000     -0.0972000000     -2.7671000000 
  H120          6.3958000000     -0.1040000000     -1.8292000000 
  H121          6.9781000000      1.4742000000      0.0919000000 
  H122          4.8546000000      7.1199000000     -2.1991000000 
  H123          4.9741000000      8.6462000000     -0.3183000000 
  H124          3.9820000000      7.9739000000      1.9354000000 
  H125          7.6632000000     -3.3922000000     -0.5070000000 
  H126          5.2562000000     -3.4682000000     -0.9216000000 
  H127          4.6384000000     -0.5601000000      2.1901000000 
  H128          7.0650000000     -0.4526000000      2.5730000000 
  H129          8.6026000000     -1.8863000000      1.2323000000 
  H130          2.8899000000     -0.9985000000      0.7517000000 
  H131          4.4661000000     -5.8929000000     -2.1507000000 
  H132          4.6007000000     -8.1306000000     -0.9899000000 
  H133          3.0965000000     -8.5463000000      0.9768000000 
  H134          1.5546000000     -6.7217000000      1.7133000000 
  H135          0.7191000000     -1.5219000000      2.0555000000 
  H136          1.2937000000     -0.8194000000      4.3590000000 
  H137          3.5191000000     -2.1734000000      5.2021000000 
  H138          4.2020000000     -3.7986000000      3.1671000000 
  H139          2.0695000000     -3.6905000000      1.5038000000 
  H140          1.6713000000     -1.8284000000     -0.8280000000 
  N141          0.4398000000     -0.6076000000     -1.1103000000 
  S142          0.3714000000     -0.2012000000     -2.6796000000 
  O143          1.5719000000     -0.7305000000     -3.3289000000 
  O144         -0.0328000000      1.1940000000     -2.9145000000 
  C145         -1.0428000000     -1.2143000000     -3.4017000000 
  F146         -2.1791000000     -0.5156000000     -3.3439000000 
  F147         -0.7672000000     -1.4730000000     -4.6843000000 
  F148         -1.2048000000     -2.3663000000     -2.7498000000 
   
  principal moments of inertia:
        amu*angstrom^2:    21600.27055    24475.89396    33716.11908
                g*cm^2: 3.58680886E-36 4.06431731E-36 5.59869259E-36
   
  rotational constants:
               cm^(-1):      0.00078044      0.00068874      0.00049999
                   GHz:      0.02339688      0.02064803      0.01498924
   
  Molecular weight:    1308.28 amu
   
  Stoichiometry: Si2C73PN4H56S2O7F3
  Molecular Point Group: C1      
  Point Group used: C1
  
  nuclear repulsion energy.......   20717.504491174 hartrees
 
 Non-default options chosen:
   SCF calculation type: DFT(m06-2x)                 
   DFT=M06-2X
   Solvation energy will be computed using PBF
     -solute cavity energy will not be included
     -surface area terms will not be included
   Highest accuracy cutoffs used in SCF
   Solvent: other                                                           
   Internal dielectric constant:    1.000
   Continuum dielectric constant:   2.380
   Solvent probe molecule radius:   2.760
  
 Temporary integer options set:
     73=  2
  
  atom       vdw   vdw2    cov     mass  grid  daf  charge   basis
  C1        1.949  1.900  0.770   12.000    Y    Y      Y    6-31g**
  C2        1.949  1.900  0.770   12.000    Y    Y      Y    6-31g**
  C3        1.949  1.900  0.770   12.000    Y    Y      Y    6-31g**
  C4        1.949  1.900  0.770   12.000    Y    Y      Y    6-31g**
  C5        1.949  1.900  0.770   12.000    Y    Y      Y    6-31g**
  C6        1.949  1.900  0.770   12.000    Y    Y      Y    6-31g**
  C7        1.949  1.900  0.770   12.000    Y    Y      Y    6-31g**
  C8        1.949  1.900  0.770   12.000    Y    Y      Y    6-31g**
  C9        1.949  1.900  0.770   12.000    Y    Y      Y    6-31g**
  C10       1.949  1.900  0.770   12.000    Y    Y      Y    6-31g**
  C11       1.949  1.900  0.770   12.000    Y    Y      Y    6-31g**
  O12       1.702  1.600  0.730   15.995    Y    Y      Y    6-31g**
  Si13      2.217  2.147  1.110   27.977    Y    Y      Y    6-31g**
  C14       1.949  1.900  0.770   12.000    Y    Y      Y    6-31g**
  C15       1.949  1.900  0.770   12.000    Y    Y      Y    6-31g**
  C16       1.949  1.900  0.770   12.000    Y    Y      Y    6-31g**
  C17       1.949  1.900  0.770   12.000    Y    Y      Y    6-31g**
  C18       1.949  1.900  0.770   12.000    Y    Y      Y    6-31g**
  C19       1.949  1.900  0.770   12.000    Y    Y      Y    6-31g**
  C20       1.949  1.900  0.770   12.000    Y    Y      Y    6-31g**
  Si21      2.217  2.147  1.110   27.977    Y    Y      Y    6-31g**
  O22       1.702  1.600  0.730   15.995    Y    Y      Y    6-31g**
  C23       1.949  1.900  0.770   12.000    Y    Y      Y    6-31g**
  C24       1.949  1.900  0.770   12.000    Y    Y      Y    6-31g**
  P25       2.147  2.074  1.060   30.974    Y    Y      Y    6-31g**
  O26       1.702  1.600  0.730   15.995    Y    Y      Y    6-31g**
  C27       1.949  1.900  0.770   12.000    Y    Y      Y    6-31g**
  C28       1.949  1.900  0.770   12.000    Y    Y      Y    6-31g**
  C29       1.949  1.900  0.770   12.000    Y    Y      Y    6-31g**
  C30       1.949  1.900  0.770   12.000    Y    Y      Y    6-31g**
  C31       1.949  1.900  0.770   12.000    Y    Y      Y    6-31g**
  C32       1.949  1.900  0.770   12.000    Y    Y      Y    6-31g**
  C33       1.949  1.900  0.770   12.000    Y    Y      Y    6-31g**
  C34       1.949  1.900  0.770   12.000    Y    Y      Y    6-31g**
  C35       1.949  1.900  0.770   12.000    Y    Y      Y    6-31g**
  C36       1.949  1.900  0.770   12.000    Y    Y      Y    6-31g**
  C37       1.949  1.900  0.770   12.000    Y    Y      Y    6-31g**
  C38       1.949  1.900  0.770   12.000    Y    Y      Y    6-31g**
  C39       1.949  1.900  0.770   12.000    Y    Y      Y    6-31g**
  C40       1.949  1.900  0.770   12.000    Y    Y      Y    6-31g**
  C41       1.949  1.900  0.770   12.000    Y    Y      Y    6-31g**
  C42       1.949  1.900  0.770   12.000    Y    Y      Y    6-31g**
  C43       1.949  1.900  0.770   12.000    Y    Y      Y    6-31g**
  C44       1.949  1.900  0.770   12.000    Y    Y      Y    6-31g**
  C45       1.949  1.900  0.770   12.000    Y    Y      Y    6-31g**
  C46       1.949  1.900  0.770   12.000    Y    Y      Y    6-31g**
  C47       1.949  1.900  0.770   12.000    Y    Y      Y    6-31g**
  C48       1.949  1.900  0.770   12.000    Y    Y      Y    6-31g**
  C49       1.949  1.900  0.770   12.000    Y    Y      Y    6-31g**
  C50       1.949  1.900  0.770   12.000    Y    Y      Y    6-31g**
  C51       1.949  1.900  0.770   12.000    Y    Y      Y    6-31g**
  C52       1.949  1.900  0.770   12.000    Y    Y      Y    6-31g**
  C53       1.949  1.900  0.770   12.000    Y    Y      Y    6-31g**
  C54       1.949  1.900  0.770   12.000    Y    Y      Y    6-31g**
  C55       1.949  1.900  0.770   12.000    Y    Y      Y    6-31g**
  C56       1.949  1.900  0.770   12.000    Y    Y      Y    6-31g**
  C57       1.949  1.900  0.770   12.000    Y    Y      Y    6-31g**
  C58       1.949  1.900  0.770   12.000    Y    Y      Y    6-31g**
  C59       1.949  1.900  0.770   12.000    Y    Y      Y    6-31g**
  C60       1.949  1.900  0.770   12.000    Y    Y      Y    6-31g**
  C61       1.949  1.900  0.770   12.000    Y    Y      Y    6-31g**
  C62       1.949  1.900  0.770   12.000    Y    Y      Y    6-31g**
  C63       1.949  1.900  0.770   12.000    Y    Y      Y    6-31g**
  C64       1.949  1.900  0.770   12.000    Y    Y      Y    6-31g**
  C65       1.949  1.900  0.770   12.000    Y    Y      Y    6-31g**
  C66       1.949  1.900  0.770   12.000    Y    Y      Y    6-31g**
  C67       1.949  1.900  0.770   12.000    Y    Y      Y    6-31g**
  C68       1.949  1.900  0.770   12.000    Y    Y      Y    6-31g**
  C69       1.949  1.900  0.770   12.000    Y    Y      Y    6-31g**
  N70       1.831  1.600  0.750   14.003    Y    Y      Y    6-31g**
  S71       2.070  1.900  1.020   31.972    Y    Y      Y    6-31g**
  O72       1.702  1.600  0.730   15.995    Y    Y      Y    6-31g**
  O73       1.702  1.600  0.730   15.995    Y    Y      Y    6-31g**
  C74       1.949  1.900  0.770   12.000    Y    Y      Y    6-31g**
  C75       1.949  1.900  0.770   12.000    Y    Y      Y    6-31g**
  C76       1.949  1.900  0.770   12.000    Y    Y      Y    6-31g**
  C77       1.949  1.900  0.770   12.000    Y    Y      Y    6-31g**
  C78       1.949  1.900  0.770   12.000    Y    Y      Y    6-31g**
  N79       1.831  1.600  0.750   14.003    Y    Y      Y    6-31g**
  N80       1.831  1.600  0.750   14.003    Y    Y      Y    6-31g**
  C81       1.949  1.900  0.770   12.000    Y    Y      Y    6-31g**
  C82       1.949  1.900  0.770   12.000    Y    Y      Y    6-31g**
  C83       1.949  1.900  0.770   12.000    Y    Y      Y    6-31g**
  C84       1.949  1.900  0.770   12.000    Y    Y      Y    6-31g**
  H85       1.597  1.150  0.320    1.008    Y    Y      Y    6-31g**
  H86       1.597  1.150  0.320    1.008    Y    Y      Y    6-31g**
  H87       1.597  1.150  0.320    1.008    Y    Y      Y    6-31g**
  H88       1.597  1.150  0.320    1.008    Y    Y      Y    6-31g**
  H89       1.597  1.150  0.320    1.008    Y    Y      Y    6-31g**
  H90       1.597  1.150  0.320    1.008    Y    Y      Y    6-31g**
  H91       1.597  1.150  0.320    1.008    Y    Y      Y    6-31g**
  H92       1.597  1.150  0.320    1.008    Y    Y      Y    6-31g**
  H93       1.597  1.150  0.320    1.008    Y    Y      Y    6-31g**
  H94       1.597  1.150  0.320    1.008    Y    Y      Y    6-31g**
  H95       1.597  1.150  0.320    1.008    Y    Y      Y    6-31g**
  H96       1.597  1.150  0.320    1.008    Y    Y      Y    6-31g**
  H97       1.597  1.150  0.320    1.008    Y    Y      Y    6-31g**
  H98       1.597  1.150  0.320    1.008    Y    Y      Y    6-31g**
  H99       1.597  1.150  0.320    1.008    Y    Y      Y    6-31g**
  H100      1.597  1.150  0.320    1.008    Y    Y      Y    6-31g**
  H101      1.597  1.150  0.320    1.008    Y    Y      Y    6-31g**
  H102      1.597  1.150  0.320    1.008    Y    Y      Y    6-31g**
  H103      1.597  1.150  0.320    1.008    Y    Y      Y    6-31g**
  H104      1.597  1.150  0.320    1.008    Y    Y      Y    6-31g**
  H105      1.597  1.150  0.320    1.008    Y    Y      Y    6-31g**
  H106      1.597  1.150  0.320    1.008    Y    Y      Y    6-31g**
  H107      1.597  1.150  0.320    1.008    Y    Y      Y    6-31g**
  H108      1.597  1.150  0.320    1.008    Y    Y      Y    6-31g**
  H109      1.597  1.150  0.320    1.008    Y    Y      Y    6-31g**
  H110      1.597  1.150  0.320    1.008    Y    Y      Y    6-31g**
  H111      1.597  1.150  0.320    1.008    Y    Y      Y    6-31g**
  H112      1.597  1.150  0.320    1.008    Y    Y      Y    6-31g**
  H113      1.597  1.150  0.320    1.008    Y    Y      Y    6-31g**
  H114      1.597  1.150  0.320    1.008    Y    Y      Y    6-31g**
  H115      1.597  1.150  0.320    1.008    Y    Y      Y    6-31g**
  H116      1.597  1.150  0.320    1.008    Y    Y      Y    6-31g**
  H117      1.597  1.150  0.320    1.008    Y    Y      Y    6-31g**
  H118      1.597  1.150  0.320    1.008    Y    Y      Y    6-31g**
  H119      1.597  1.150  0.320    1.008    Y    Y      Y    6-31g**
  H120      1.597  1.150  0.320    1.008    Y    Y      Y    6-31g**
  H121      1.597  1.150  0.320    1.008    Y    Y      Y    6-31g**
  H122      1.597  1.150  0.320    1.008    Y    Y      Y    6-31g**
  H123      1.597  1.150  0.320    1.008    Y    Y      Y    6-31g**
  H124      1.597  1.150  0.320    1.008    Y    Y      Y    6-31g**
  H125      1.597  1.150  0.320    1.008    Y    Y      Y    6-31g**
  H126      1.597  1.150  0.320    1.008    Y    Y      Y    6-31g**
  H127      1.597  1.150  0.320    1.008    Y    Y      Y    6-31g**
  H128      1.597  1.150  0.320    1.008    Y    Y      Y    6-31g**
  H129      1.597  1.150  0.320    1.008    Y    Y      Y    6-31g**
  H130      1.597  1.150  0.320    1.008    Y    Y      Y    6-31g**
  H131      1.597  1.150  0.320    1.008    Y    Y      Y    6-31g**
  H132      1.597  1.150  0.320    1.008    Y    Y      Y    6-31g**
  H133      1.597  1.150  0.320    1.008    Y    Y      Y    6-31g**
  H134      1.597  1.150  0.320    1.008    Y    Y      Y    6-31g**
  H135      1.597  1.150  0.320    1.008    Y    Y      Y    6-31g**
  H136      1.597  1.150  0.320    1.008    Y    Y      Y    6-31g**
  H137      1.597  1.150  0.320    1.008    Y    Y      Y    6-31g**
  H138      1.597  1.150  0.320    1.008    Y    Y      Y    6-31g**
  H139      1.597  1.150  0.320    1.008    Y    Y      Y    6-31g**
  H140      1.597  1.150  0.320    1.008    Y    Y      Y    6-31g**
  N141      1.831  1.600  0.750   14.003    Y    Y      Y    6-31g**
  S142      2.070  1.900  1.020   31.972    Y    Y      Y    6-31g**
  O143      1.702  1.600  0.730   15.995    Y    Y      Y    6-31g**
  O144      1.702  1.600  0.730   15.995    Y    Y      Y    6-31g**
  C145      1.949  1.900  0.770   12.000    Y    Y      Y    6-31g**
  F146      1.736  1.682  0.720   18.998    Y    Y      Y    6-31g**
  F147      1.736  1.682  0.720   18.998    Y    Y      Y    6-31g**
  F148      1.736  1.682  0.720   18.998    Y    Y      Y    6-31g**
  
  Peak memory usage:    528 Mb
  
  end of program pre
   
 Time(pre)  user:        0.0  user+sys:        0.0  wallclock:        0.4
  
  start of program onee
  
  smallest eigenvalue of S:    2.352E-04
  number of canonical orbitals.....         1673
  Peak memory usage:    707 Mb
  
  end of program onee
   
 Time(onee)  user:       34.0  user+sys:       36.0  wallclock:       43.9
  
  start of program hfig
  
  initial wavefunction generated automatically from atomic wavefunctions
 
  Irreducible     Total no   No of occupied orbitals 
  representation  orbitals   Shell_1  Shell_2    ...
  No Symm         1673        340
  ------------------------
  Orbital occupation/shell    1.000
 
  Peak memory usage:    646 Mb
  
  end of program hfig
   
 Time(hfig)  user:       49.0  user+sys:       50.0  wallclock:       59.0
  
  start of program probe
  
  Peak memory usage:    640 Mb
  
  end of program probe
   
 Time(probe)  user:       29.0  user+sys:       29.0  wallclock:       33.0
  
  start of program grid
  
  
   grid     grid set  grid #  grid sym
  ------    --------  ------  --------
  coarse        0        0        1
  medium        2        1        1
  fine          0        0        1
  ultrafine     4        2        1
  charge       -1        3        1
  gradient      4        2        1
  density       0        0        1
  DFT-fine    -13        4        1
  DFT-med.    -13        4        1
  DFT-grad    -13        4        1
  DFT-der2      0        0        1
  DFT-cphf      0        0        1
  LMP2-enrg     4        2        1
  LMP2-grad     2        1        1
  DFT-cphf2     0        0        1
  PBF-dens      0        0        1
  plotting      0        0        1
  
   
  number of gridpoints: 
     atom        C1       C2       C3       C4       C5       C6       C7
  grid # 1       96      101       93      102      100       96       92
  grid # 2      339      361      336      367      357      335      336
  grid # 3       28       26       38       51       15       46       28
  grid # 4    48124    48124    48124    48124    48124    48124    48124
   
  number of gridpoints: 
     atom        C8       C9      C10      C11      O12     Si13      C14
  grid # 1       94       97      100      100      112      471      101
  grid # 2      335      356      355      360      430      471      356
  grid # 3       45       16       10       15       32        7       17
  grid # 4    48124    48124    48124    48124    47716    38542    48124
   
  number of gridpoints: 
     atom       C15      C16      C17      C18      C19      C20     Si21
  grid # 1       97      101       97       94       97      100      470
  grid # 2      353      364      336      335      339      359      470
  grid # 3        9       31       30       23       43        8        7
  grid # 4    48124    48124    48124    48124    48124    48124    38542
   
  number of gridpoints: 
     atom       O22      C23      C24      P25      O26      C27      C28
  grid # 1      113       94       94      447      116      101      101
  grid # 2      441      339      338      447      444      357      359
  grid # 3       59       41       47        8       68        9       15
  grid # 4    47716    48124    48124    38640    47716    48124    48124
   
  number of gridpoints: 
     atom       C29      C30      C31      C32      C33      C34      C35
  grid # 1       99      101       99      101       92       94       92
  grid # 2      359      358      357      360      335      329      335
  grid # 3       10        9        7       15       17        7       20
  grid # 4    48124    48124    48124    48124    48124    48124    48124
   
  number of gridpoints: 
     atom       C36      C37      C38      C39      C40      C41      C42
  grid # 1       96       92       94       92       97       93       94
  grid # 2      340      331      335      333      338      332      334
  grid # 3       32       14       23       14       27       14       16
  grid # 4    48124    48124    48124    48124    48124    48124    48124
   
  number of gridpoints: 
     atom       C43      C44      C45      C46      C47      C48      C49
  grid # 1       92       97       93       94       92       94       94
  grid # 2      336      339      334      331      331      335      336
  grid # 3       18       36       27       27       17       41       48
  grid # 4    48124    48124    48124    48124    48124    48124    48124
   
  number of gridpoints: 
     atom       C50      C51      C52      C53      C54      C55      C56
  grid # 1       94       93       93       93       92       93       93
  grid # 2      336      330      334      336      335      335      334
  grid # 3       46       26       37       37       31       35       29
  grid # 4    48124    48124    48124    48124    48124    48124    48124
   
  number of gridpoints: 
     atom       C57      C58      C59      C60      C61      C62      C63
  grid # 1       94       93       93       94       94       94       96
  grid # 2      334      332      332      335      335      337      332
  grid # 3       24       27       25       39       48       45       23
  grid # 4    48124    48124    48124    48124    48124    48124    48124
   
  number of gridpoints: 
     atom       C64      C65      C66      C67      C68      C69      N70
  grid # 1       95       96       95       95       96       90       98
  grid # 2      332      356      330      329      330      322      357
  grid # 3       18       12        9       20       26        6       11
  grid # 4    48124    48124    48124    48124    48124    48124    47928
   
  number of gridpoints: 
     atom       S71      O72      O73      C74      C75      C76      C77
  grid # 1      437      120      120       95       96       97       97
  grid # 2      437      489      480      355      328      333      331
  grid # 3       11      166      175       27       39       48       46
  grid # 4    48492    47716    47716    48124    48124    48124    48124
   
  number of gridpoints: 
     atom       C78      N79      N80      C81      C82      C83      C84
  grid # 1       96      108       97       94       94       93       94
  grid # 2      339      398      345      330      329      332      317
  grid # 3       38       28       14       19       23       19        6
  grid # 4    48124    47928    47928    48124    48124    48124    48124
   
  number of gridpoints: 
     atom       H85      H86      H87      H88      H89      H90      H91
  grid # 1      111      118      118      110      118      112      112
  grid # 2      429      451      446      427      453      431      421
  grid # 3      203      407      359      173      424      227      174
  grid # 4    48426    48426    48426    48426    48426    48426    48426
   
  number of gridpoints: 
     atom       H92      H93      H94      H95      H96      H97      H98
  grid # 1      117      118      118      109      112      112      111
  grid # 2      443      450      451      421      438      436      432
  grid # 3      362      406      418      127      266      252      221
  grid # 4    48426    48426    48426    48426    48426    48426    48426
   
  number of gridpoints: 
     atom       H99     H100     H101     H102     H103     H104     H105
  grid # 1      110      112      109      107      107      112      112
  grid # 2      429      437      433      413      416      436      431
  grid # 3      171      260      202       97      117      253      237
  grid # 4    48426    48426    48426    48426    48426    48426    48426
   
  number of gridpoints: 
     atom      H106     H107     H108     H109     H110     H111     H112
  grid # 1      111      110      111      117      118      118      118
  grid # 2      432      434      430      446      452      453      453
  grid # 3      232      243      207      344      415      425      423
  grid # 4    48426    48426    48426    48426    48426    48426    48426
   
  number of gridpoints: 
     atom      H113     H114     H115     H116     H117     H118     H119
  grid # 1      117      118      118      118      117      113      113
  grid # 2      449      452      452      450      451      434      436
  grid # 3      369      415      419      376      395      250      255
  grid # 4    48426    48426    48426    48426    48426    48426    48426
   
  number of gridpoints: 
     atom      H120     H121     H122     H123     H124     H125     H126
  grid # 1      116      115      118      118      118      117      108
  grid # 2      443      443      452      453      453      448      414
  grid # 3      318      319      414      424      424      394      118
  grid # 4    48426    48426    48426    48426    48426    48426    48426
   
  number of gridpoints: 
     atom      H127     H128     H129     H130     H131     H132     H133
  grid # 1      108      117      117      102      112      118      118
  grid # 2      413      445      450      412      441      454      453
  grid # 3      106      352      408       86      299      430      428
  grid # 4    48426    48426    48426    48426    48426    48426    48426
   
  number of gridpoints: 
     atom      H134     H135     H136     H137     H138     H139     H140
  grid # 1      114      100      111      117      115      102       98
  grid # 2      439      390      435      458      450      408      393
  grid # 3      299       65      243      426      345       71       60
  grid # 4    48426    48426    48426    48426    48426    48426    48426
   
  number of gridpoints: 
     atom      N141     S142     O143     O144     C145     F146     F147
  grid # 1      105      441      119      120       90      513      533
  grid # 2      389      441      480      478      319      513      533
  grid # 3       18        7      134      144        7       99      300
  grid # 4    47928    48492    47716    47716    48124    47062    47062
   
  number of gridpoints: 
     atom      F148    total
  grid # 1      516    18359
  grid # 2      516    57833
  grid # 3      105    19411
  grid # 4    47062  7104526
   
  Peak memory usage:    671 Mb
  
  end of program grid
   
 Time(grid)  user:     1004.0  user+sys:     1008.0  wallclock:     1964.6
  
  start of program rwr
  
  dpptrf failed in rinv with info = 189
  switching to SVD for RwR matrix  79 for grid  2
  Peak memory usage:    661 Mb
  
  end of program rwr
   
 Time(rwr)  user:       68.0  user+sys:       74.0  wallclock:      151.4
  
  start of program scf
  
 number of electrons..........        680
 number of alpha electrons....        340
 number of beta electrons.....        340
 number of orbitals, total....       1673
 number of doubly-occ'd orbs..        340
 number of open shell orbs....          0
 number of occupied orbitals..        340
 number of virtual orbitals...       1333
 number of hamiltonians.......          1
 number of shells.............          1
 SCF type: DFT=M06-2X
  
       i  u  d  i  g                   
       t  p  i  c  r                                 RMS    maximum
       e  d  i  u  i                       energy  density   DIIS  
       r  t  s  t  d       total energy    change  change    error 
  
etot    1  N  N  1  U   -5562.65175691141           4.3E-03  1.1E-01
etot    2  N  Y  1  U   -5511.59909468981 -5.1E+01  1.2E-02  2.2E-01
etot    3  N  Y  1  U   -5396.59936632387 -1.1E+02  1.1E-02  4.3E-01
etot    4  N  Y  1  U   -5570.67879481284  1.7E+02  6.1E-03  7.4E-02
etot    5  N  Y  1  U   -5551.65796504888 -1.9E+01  5.7E-03  1.1E-01
etot    6  N  Y  1  U   -5573.03543968313  2.1E+01  1.1E-03  4.0E-02
etot    7  N  Y  1  U   -5575.28077769051  2.2E+00  4.4E-04  1.7E-02
etot    8  N  Y  1  U   -5575.48018534646  2.0E-01  1.7E-04  6.8E-03
etot    9  N  Y  1  U   -5575.51583352296  3.6E-02  5.9E-05  2.6E-03
etot   10  N  Y  1  U   -5575.52161104288  5.8E-03  2.3E-05  1.5E-03
etot   11  N  Y  1  U   -5575.52260120533  9.9E-04  1.3E-05  5.8E-04
etot   12  N  Y  1  U   -5575.52281641973  2.2E-04  5.9E-06  4.5E-04
etot   13  N  Y  1  U   -5575.52286989736  5.3E-05  2.2E-06  9.0E-05
etot   14  N  N  1  U   -5575.52287807683  8.2E-06  0.0E+00  0.0E+00
  
  
 Energy components, in hartrees:
   (A)  Nuclear repulsion............   20717.50449117393
   (E)  Total one-electron terms.....  -48964.19648573230
   (F)    Electron-nuclear...........  -54500.22005555626
   (H)    Kinetic....................    5536.02356982391
   (I)  Total two-electron terms.....   22671.16911648154
   (J)    Coulomb....................   23322.41094649191
   (K)    Exchange+Correlation.......    -651.24183001036
   (L)  Electronic energy............  -26293.02736925075  (E+I)
   (M)  -V/T.........................       2.00713496028  (-(A+F+I)/H)
   (N)  Total energy.................   -5575.52287807683  (A+L)
  
 SCFE: SCF energy: DFT(m06-2x)     -5575.52287807683 hartrees   iterations:  14
  
 
 HOMO energy:    -0.24186
 LUMO energy:    -0.07396
 
  Orbital energies (hartrees): 
   -90.17598   -90.13480   -78.20633   -67.00390   -67.00129   -25.26915
   -25.26648   -25.26608   -19.68877   -19.68538   -19.65110   -19.64640
   -19.61045   -19.60907   -19.60012   -14.82224   -14.81292   -14.81277
   -14.73950   -10.78616   -10.66751   -10.64811   -10.63010   -10.62419
   -10.61740   -10.61605   -10.61200   -10.60576   -10.60323   -10.59832
   -10.58842   -10.58497   -10.57557   -10.57317   -10.57194   -10.57016
   -10.56947   -10.56873   -10.56653   -10.56241   -10.55792   -10.55782
   -10.55676   -10.55449   -10.55173   -10.55117   -10.55003   -10.54963
   -10.54938   -10.54929   -10.54904   -10.54851   -10.54821   -10.54817
   -10.54740   -10.54672   -10.54657   -10.54640   -10.54606   -10.54446
   -10.54393   -10.54379   -10.54357   -10.54334   -10.54245   -10.54226
   -10.54226   -10.54211   -10.54202   -10.54013   -10.54012   -10.53999
   -10.53908   -10.53890   -10.53885   -10.53814   -10.53721   -10.53689
   -10.53648   -10.53612   -10.53583   -10.53548   -10.53453   -10.53400
   -10.53126   -10.53106   -10.52970   -10.52852   -10.52830   -10.52132
   -10.52132   -10.52105    -8.48529    -8.44415    -6.98580    -6.40764
    -6.40642    -6.40602    -6.36602    -6.36554    -6.36530    -5.53498
    -5.53276    -5.10409    -5.10340    -5.10167    -3.84465    -3.84444
    -3.84439    -3.84254    -3.84226    -3.84198    -1.43542    -1.34475
    -1.34245    -1.24474    -1.22343    -1.20206    -1.18157    -1.13234
    -1.11460    -1.10263    -1.08981    -1.08608    -1.05844    -0.97918
    -0.97729    -0.96862    -0.95859    -0.94573    -0.94402    -0.93970
    -0.93827    -0.93215    -0.93107    -0.92949    -0.91587    -0.91129
    -0.90264    -0.90165    -0.88599    -0.88158    -0.85866    -0.84631
    -0.84583    -0.84060    -0.83731    -0.83660    -0.83130    -0.83088
    -0.82818    -0.82539    -0.82443    -0.82393    -0.82272    -0.82178
    -0.82075    -0.81816    -0.81668    -0.81449    -0.81427    -0.80645
    -0.79213    -0.77141    -0.75904    -0.74849    -0.72202    -0.71571
    -0.70785    -0.70084    -0.69786    -0.69305    -0.69183    -0.68453
    -0.68278    -0.67813    -0.67447    -0.67351    -0.67228    -0.67192
    -0.66965    -0.66621    -0.66491    -0.66189    -0.66121    -0.65989
    -0.65963    -0.65800    -0.65428    -0.65218    -0.65083    -0.64956
    -0.64339    -0.64161    -0.63273    -0.62118    -0.62029    -0.61357
    -0.60312    -0.59789    -0.59601    -0.59347    -0.58555    -0.57995
    -0.57667    -0.57481    -0.57124    -0.57055    -0.56990    -0.56842
    -0.56595    -0.55967    -0.55659    -0.55338    -0.55108    -0.54305
    -0.53835    -0.53714    -0.53642    -0.53435    -0.53257    -0.53069
    -0.52966    -0.52273    -0.52043    -0.51913    -0.51772    -0.51579
    -0.51422    -0.51244    -0.51151    -0.50867    -0.50770    -0.50683
    -0.50546    -0.50428    -0.50174    -0.50127    -0.49903    -0.49714
    -0.49677    -0.49636    -0.49549    -0.49120    -0.49102    -0.49069
    -0.48887    -0.48830    -0.48811    -0.48617    -0.48378    -0.48279
    -0.48155    -0.48071    -0.47974    -0.47848    -0.47790    -0.47724
    -0.47638    -0.47154    -0.46950    -0.46832    -0.46571    -0.45893
    -0.45768    -0.45471    -0.45126    -0.44719    -0.44446    -0.44221
    -0.43958    -0.43715    -0.43349    -0.43028    -0.42760    -0.42640
    -0.42378    -0.42077    -0.41977    -0.41935    -0.41851    -0.41677
    -0.41408    -0.41242    -0.41078    -0.40846    -0.40426    -0.40290
    -0.39891    -0.39638    -0.39373    -0.39264    -0.38904    -0.38770
    -0.38725    -0.38674    -0.38491    -0.38102    -0.38074    -0.38012
    -0.37908    -0.37846    -0.37502    -0.36901    -0.36648    -0.36574
    -0.36032    -0.35576    -0.35161    -0.34883    -0.34784    -0.34294
    -0.34023    -0.33988    -0.33799    -0.33396    -0.33280    -0.32944
    -0.32665    -0.32581    -0.32277    -0.31867    -0.31837    -0.30281
    -0.29944    -0.29829    -0.29664    -0.29585    -0.29470    -0.29130
    -0.28889    -0.28774    -0.28544    -0.28503    -0.28065    -0.27932
    -0.27860    -0.27459    -0.26683    -0.24186    -0.07396    -0.03983
    -0.02383    -0.00894     0.00534     0.01202     0.01513     0.01622
     0.02065     0.02510
 
  Peak memory usage:    862 Mb
  
  end of program scf
   
 Time(scf)  user:    36403.0  user+sys:    36590.0  wallclock:    60994.7
  
  start of program ch
  
  gridpoints used for charge fit        16824
    out of a possible maximum of        19411
  
   Electrostatic potential fitting constrained to reproduce
     total charge:                yes
     dipole moment:               no 
     traceless quadrupole moment: no 
     traceless octapole moment:   no 
  
  Atomic charges from electrostatic potential: 
   
 Atom       C1           C2           C3           C4           C5      
 Charge   -0.02969     -0.10213     -0.18472      0.19259      0.05229
   
 Atom       C6           C7           C8           C9           C10     
 Charge   -0.21312     -0.28190     -0.11487      0.21525     -0.22537
   
 Atom       C11          O12          Si13         C14          C15     
 Charge   -0.03167     -0.33788      0.01943      0.14497      0.29622
   
 Atom       C16          C17          C18          C19          C20     
 Charge    0.35106     -0.19469     -0.52006     -0.30379      0.07604
   
 Atom       Si21         O22          C23          C24          P25     
 Charge    0.03985     -0.40668     -0.16056     -0.09476      1.03847
   
 Atom       O26          C27          C28          C29          C30     
 Charge   -0.65319      0.22061      0.12095     -0.12977      0.14510
   
 Atom       C31          C32          C33          C34          C35     
 Charge    0.08936      0.07442     -0.27717     -0.17226     -0.10669
   
 Atom       C36          C37          C38          C39          C40     
 Charge   -0.18749      0.07294     -0.08553     -0.04539     -0.28369
   
 Atom       C41          C42          C43          C44          C45     
 Charge   -0.09313     -0.25240     -0.10739     -0.17102     -0.01279
   
 Atom       C46          C47          C48          C49          C50     
 Charge   -0.23062     -0.10059     -0.16517     -0.14086     -0.12133
   
 Atom       C51          C52          C53          C54          C55     
 Charge   -0.24792     -0.04749     -0.18788     -0.18695     -0.14899
   
 Atom       C56          C57          C58          C59          C60     
 Charge   -0.06186     -0.14747     -0.15426     -0.07618     -0.18097
   
 Atom       C61          C62          C63          C64          C65     
 Charge   -0.12342     -0.12446     -0.08270     -0.38675      0.43097
   
 Atom       C66          C67          C68          C69          N70     
 Charge   -0.17682     -0.12930     -0.15842     -0.16546     -0.19230
   
 Atom       S71          O72          O73          C74          C75     
 Charge    0.68203     -0.41593     -0.40092      0.27735     -0.21795
   
 Atom       C76          C77          C78          N79          N80     
 Charge   -0.01332     -0.27454      0.19626     -0.27247     -0.08373
   
 Atom       C81          C82          C83          C84          H85     
 Charge   -0.04109     -0.21737     -0.22661      0.23988      0.07054
   
 Atom       H86          H87          H88          H89          H90     
 Charge    0.14577      0.14007      0.14706      0.13318      0.14160
   
 Atom       H91          H92          H93          H94          H95     
 Charge    0.20791      0.16345      0.14124      0.12918      0.16944
   
 Atom       H96          H97          H98          H99          H100    
 Charge    0.12061      0.10463      0.10532      0.07389      0.11225
   
 Atom       H101         H102         H103         H104         H105    
 Charge    0.08727      0.14725      0.13142      0.13394      0.11638
   
 Atom       H106         H107         H108         H109         H110    
 Charge    0.09486      0.07506      0.14636      0.10742      0.13757
   
 Atom       H111         H112         H113         H114         H115    
 Charge    0.13353      0.13185      0.14645      0.11497      0.13724
   
 Atom       H116         H117         H118         H119         H120    
 Charge    0.14133      0.13280      0.09015      0.14812      0.13840
   
 Atom       H121         H122         H123         H124         H125    
 Charge    0.11105      0.14215      0.12938      0.13095      0.14153
   
 Atom       H126         H127         H128         H129         H130    
 Charge    0.17984      0.10816      0.13998      0.14607      0.11381
   
 Atom       H131         H132         H133         H134         H135    
 Charge    0.16473      0.14739      0.17673      0.07212      0.31719
   
 Atom       H136         H137         H138         H139         H140    
 Charge    0.16722      0.17463      0.15782     -0.09658      0.23234
   
 Atom       N141         S142         O143         O144         C145    
 Charge   -0.61379      0.68193     -0.42714     -0.46584      0.50465
   
 Atom       F146         F147         F148    
 Charge   -0.15122     -0.15632     -0.12141
  
  sum of atomic charges:     0.000000
   
 RMS Error   9.89E-04 hartrees
 
  Peak memory usage:    589 Mb
  
  end of program ch
   
 Time(ch)  user:       17.0  user+sys:       17.0  wallclock:       18.6
  
  start of program post
  
  Writing input files for PBF
  Peak memory usage:    536 Mb
  
  end of program post
   
 Time(post)  user:        0.0  user+sys:        0.0  wallclock:        0.2

  start of program pbf

Pbf Version 4.00

Molecular surface area:      840.42017   [A2]
Reaction field energy:       -20.73096   [kT]
  Peak memory usage: 559 Mb

  end of program pbf

 Time(pbf)  user:        6.6  user+sys:        6.7  wallclock:        6.7
  
  start of program solv
  
   number of surface charges from PBF   13352
   sum of surface charges     -0.00030
   
  nuclear repulsion energy.......   20717.504491174 hartrees
  Peak memory usage:    701 Mb
  
  end of program solv
   
 Time(solv)  user:       34.0  user+sys:       34.0  wallclock:       34.7
  
  start of program scf
  
  
       i  u  d  i  g                   
       t  p  i  c  r                                 RMS    maximum
       e  d  i  u  i                       energy  density   DIIS  
       r  t  s  t  d       total energy    change  change    error 
  
etot    1  N  N  1  U   -5575.56597173194           6.3E-05  9.8E-04
etot    2  N  Y  1  U   -5575.56703042930  1.1E-03  2.2E-05  7.8E-04
etot    3  N  Y  1  U   -5575.56744746367  4.2E-04  6.8E-06  3.5E-04
etot    4  N  Y  1  U   -5575.56752248344  7.5E-05  3.1E-06  1.4E-04
etot    5  N  N  1  U   -5575.56753221102  9.7E-06  0.0E+00  0.0E+00
  
  
 Energy components, in hartrees:
   (A)  Total zero-electron terms....   20721.57703750500
   (B)    Nuclear-nuclear............   20717.50449117393
   (C)    Nuclear-solvent............       4.07254633107
   (E)  Total one-electron terms.....  -48970.39101681960
   (F)    Electron-nuclear...........  -54502.35404948269
   (G)    Electron-solvent...........      -4.11874597784
   (H)    Kinetic....................    5536.08177864093
   (I)  Total two-electron terms.....   22673.24644710358
   (J)    Coulomb....................   23324.51151385300
   (K)    Exchange+Correlation.......    -651.26506674942
   (L)  Electronic energy............  -26297.14456971602  (E+I)
   (N)  Total quantum mech. energy...   -5575.56753221102  (A+L)
   (O)  Gas phase energy.............   -5575.52287807683
   (P)  Solution phase energy........   -5575.54443238763  (Q+R+S)
   (Q)    Total solute energy........   -5575.52133256425  (N-C-G)
   (R)    Total solvent energy.......      -0.02309982339  (C/2+G/2)
   (S)    Solute cavity energy.......       0.00000000000
   (U)  Reorganization energy........       0.00154551258  (Q-O)
   (V)  Solvation energy.............      -0.02155431081  (P-O)
  
 SCFE:  Solution phase energy: DFT(m06-2x)      -5575.54443238763 hartrees
        SCF iterations:   5
  
 
 HOMO energy:    -0.24700
 LUMO energy:    -0.07219
 
  Orbital energies (hartrees): 
   -90.17909   -90.14646   -78.21195   -67.00795   -67.00532   -25.28023
   -25.27879   -25.27720   -19.69377   -19.69054   -19.65375   -19.64977
   -19.62245   -19.62173   -19.60445   -14.82032   -14.81508   -14.80761
   -14.74780   -10.79746   -10.66762   -10.64402   -10.62208   -10.62163
   -10.62119   -10.62078   -10.60178   -10.59818   -10.59662   -10.59339
   -10.58681   -10.58135   -10.57071   -10.57037   -10.57027   -10.56763
   -10.56736   -10.56676   -10.56523   -10.56458   -10.56281   -10.56190
   -10.56129   -10.55801   -10.55396   -10.55253   -10.55227   -10.55222
   -10.55179   -10.55171   -10.55139   -10.55095   -10.55081   -10.55071
   -10.55008   -10.55003   -10.54938   -10.54926   -10.54876   -10.54731
   -10.54721   -10.54708   -10.54677   -10.54661   -10.54628   -10.54613
   -10.54602   -10.54569   -10.54468   -10.54380   -10.54348   -10.54271
   -10.54266   -10.54255   -10.54224   -10.54162   -10.54149   -10.54081
   -10.54043   -10.53990   -10.53983   -10.53972   -10.53868   -10.53816
   -10.53620   -10.53478   -10.53365   -10.53243   -10.53220   -10.52572
   -10.52571   -10.52474    -8.48837    -8.45576    -6.99140    -6.41071
    -6.40961    -6.40903    -6.37759    -6.37721    -6.37693    -5.53903
    -5.53679    -5.10970    -5.10902    -5.10728    -3.84870    -3.84849
    -3.84844    -3.84657    -3.84630    -3.84601    -1.44682    -1.35610
    -1.35394    -1.24851    -1.22906    -1.21380    -1.18664    -1.13649
    -1.11290    -1.10248    -1.09683    -1.08996    -1.05994    -0.98497
    -0.97597    -0.97409    -0.96310    -0.94603    -0.94349    -0.94177
    -0.93715    -0.93585    -0.93535    -0.93360    -0.91960    -0.90661
    -0.90540    -0.89897    -0.88604    -0.88366    -0.85552    -0.85026
    -0.84407    -0.84282    -0.84082    -0.83808    -0.83481    -0.83433
    -0.83249    -0.82852    -0.82803    -0.82765    -0.82681    -0.82574
    -0.82430    -0.82188    -0.82087    -0.81866    -0.81685    -0.81284
    -0.79660    -0.76750    -0.75512    -0.75102    -0.72386    -0.71822
    -0.70657    -0.70395    -0.70191    -0.69615    -0.69123    -0.68610
    -0.68100    -0.67985    -0.67754    -0.67609    -0.67545    -0.67478
    -0.67145    -0.67108    -0.66990    -0.66828    -0.66753    -0.66498
    -0.66432    -0.66234    -0.65750    -0.65519    -0.65481    -0.64843
    -0.64659    -0.64058    -0.63742    -0.62465    -0.61831    -0.61404
    -0.60627    -0.60115    -0.59725    -0.59041    -0.58218    -0.58009
    -0.57982    -0.57780    -0.57651    -0.57389    -0.57335    -0.57191
    -0.56989    -0.56301    -0.55676    -0.55140    -0.55008    -0.54848
    -0.54688    -0.54417    -0.54013    -0.53715    -0.53485    -0.53362
    -0.52847    -0.52528    -0.52184    -0.51942    -0.51914    -0.51873
    -0.51705    -0.51665    -0.51510    -0.51159    -0.51120    -0.51020
    -0.50842    -0.50697    -0.50596    -0.50378    -0.50160    -0.50061
    -0.49959    -0.49933    -0.49788    -0.49545    -0.49479    -0.49244
    -0.49205    -0.49158    -0.49000    -0.48882    -0.48822    -0.48664
    -0.48432    -0.48152    -0.48081    -0.47977    -0.47912    -0.47613
    -0.47505    -0.47356    -0.47245    -0.47154    -0.46944    -0.46177
    -0.46037    -0.45562    -0.45177    -0.45021    -0.44829    -0.44560
    -0.44318    -0.44136    -0.43473    -0.43273    -0.43037    -0.42843
    -0.42715    -0.42443    -0.42340    -0.42295    -0.42055    -0.41830
    -0.41700    -0.41588    -0.41407    -0.41340    -0.40702    -0.40620
    -0.40364    -0.40001    -0.39636    -0.39427    -0.39243    -0.39188
    -0.39047    -0.38972    -0.38619    -0.38463    -0.38385    -0.38284
    -0.38250    -0.38013    -0.37558    -0.37473    -0.37296    -0.37095
    -0.36700    -0.35370    -0.35337    -0.35212    -0.35032    -0.34892
    -0.34302    -0.34233    -0.34101    -0.33759    -0.33739    -0.33517
    -0.33236    -0.32952    -0.32498    -0.32441    -0.31674    -0.30510
    -0.30386    -0.30218    -0.30091    -0.29962    -0.29758    -0.29454
    -0.29264    -0.29124    -0.28976    -0.28769    -0.28500    -0.28306
    -0.28059    -0.27912    -0.27132    -0.24700    -0.07219    -0.03362
    -0.01614    -0.01388     0.00143     0.00774     0.01671     0.01731
     0.01877     0.02114
 
  Peak memory usage:    859 Mb
  
  end of program scf
   
 Time(scf)  user:     8901.0  user+sys:     8934.0  wallclock:     9005.7
  
  start of program sole
  
    SCRF                   solvation energy
  iteration          Hartrees            kcal/mol
     0               0.0000000            0.0000
     1              -0.0215543          -13.5255
  
  solvation energy not yet converged... 
  
  Peak memory usage:    635 Mb
  
  end of program sole
   
 Time(sole)  user:        0.0  user+sys:        0.0  wallclock:        0.2
  
  start of program ch
  
  gridpoints used for charge fit        16824
    out of a possible maximum of        16824
  
   Electrostatic potential fitting constrained to reproduce
     total charge:                yes
     dipole moment:               no 
     traceless quadrupole moment: no 
     traceless octapole moment:   no 
  
  Atomic charges from electrostatic potential: 
   
 Atom       C1           C2           C3           C4           C5      
 Charge   -0.03121     -0.09874     -0.19298      0.19409      0.04708
   
 Atom       C6           C7           C8           C9           C10     
 Charge   -0.22333     -0.29303     -0.11845      0.20898     -0.21620
   
 Atom       C11          O12          Si13         C14          C15     
 Charge   -0.01592     -0.33422     -0.00931      0.14723      0.27851
   
 Atom       C16          C17          C18          C19          C20     
 Charge    0.34957     -0.20324     -0.53481     -0.31144      0.09728
   
 Atom       Si21         O22          C23          C24          P25     
 Charge    0.01447     -0.39312     -0.16476     -0.10342      1.02044
   
 Atom       O26          C27          C28          C29          C30     
 Charge   -0.64173      0.23479      0.13140     -0.12459      0.15710
   
 Atom       C31          C32          C33          C34          C35     
 Charge    0.09564      0.08046     -0.28669     -0.17970     -0.11590
   
 Atom       C36          C37          C38          C39          C40     
 Charge   -0.19351      0.07352     -0.08932     -0.04532     -0.29913
   
 Atom       C41          C42          C43          C44          C45     
 Charge   -0.09903     -0.25375     -0.11265     -0.17163     -0.01830
   
 Atom       C46          C47          C48          C49          C50     
 Charge   -0.23848     -0.10427     -0.16933     -0.15009     -0.12855
   
 Atom       C51          C52          C53          C54          C55     
 Charge   -0.25856     -0.05109     -0.19748     -0.19444     -0.15214
   
 Atom       C56          C57          C58          C59          C60     
 Charge   -0.06834     -0.15250     -0.15973     -0.08414     -0.18601
   
 Atom       C61          C62          C63          C64          C65     
 Charge   -0.13315     -0.13335     -0.08828     -0.39712      0.44592
   
 Atom       C66          C67          C68          C69          N70     
 Charge   -0.16867     -0.14207     -0.15962     -0.18999     -0.17935
   
 Atom       S71          O72          O73          C74          C75     
 Charge    0.69248     -0.43892     -0.42198      0.28010     -0.22357
   
 Atom       C76          C77          C78          N79          N80     
 Charge   -0.01168     -0.27294      0.19834     -0.28464     -0.07455
   
 Atom       C81          C82          C83          C84          H85     
 Charge   -0.04368     -0.21905     -0.23027      0.23470      0.07336
   
 Atom       H86          H87          H88          H89          H90     
 Charge    0.15430      0.14786      0.15368      0.14147      0.14424
   
 Atom       H91          H92          H93          H94          H95     
 Charge    0.21434      0.17090      0.14956      0.13813      0.17102
   
 Atom       H96          H97          H98          H99          H100    
 Charge    0.12603      0.10923      0.10656      0.07432      0.11605
   
 Atom       H101         H102         H103         H104         H105    
 Charge    0.08754      0.15634      0.13123      0.13647      0.11927
   
 Atom       H106         H107         H108         H109         H110    
 Charge    0.09292      0.07791      0.15488      0.11397      0.14555
   
 Atom       H111         H112         H113         H114         H115    
 Charge    0.14234      0.14045      0.15241      0.12207      0.14515
   
 Atom       H116         H117         H118         H119         H120    
 Charge    0.14787      0.14089      0.09750      0.14693      0.14497
   
 Atom       H121         H122         H123         H124         H125    
 Charge    0.11965      0.15015      0.13826      0.13990      0.14951
   
 Atom       H126         H127         H128         H129         H130    
 Charge    0.18602      0.10385      0.14869      0.15367      0.11860
   
 Atom       H131         H132         H133         H134         H135    
 Charge    0.17202      0.15859      0.18642      0.07776      0.30610
   
 Atom       H136         H137         H138         H139         H140    
 Charge    0.17609      0.18430      0.16495     -0.08889      0.22926
   
 Atom       N141         S142         O143         O144         C145    
 Charge   -0.59458      0.68480     -0.44493     -0.48317      0.50604
   
 Atom       F146         F147         F148    
 Charge   -0.14808     -0.16127     -0.12004
  
  sum of atomic charges:     0.000000
   
 RMS Error   9.95E-04 hartrees
 
  Peak memory usage:    588 Mb
  
  end of program ch
   
 Time(ch)  user:       17.0  user+sys:       17.0  wallclock:       18.6
  
  start of program post
  
  Writing input files for PBF
  Peak memory usage:    536 Mb
  
  end of program post
   
 Time(post)  user:        0.0  user+sys:        0.0  wallclock:        0.2

  start of program pbf

Pbf Version 4.00

Molecular surface area:      840.42017   [A2]
Reaction field energy:       -24.33948   [kT]
  Peak memory usage: 559 Mb

  end of program pbf

 Time(pbf)  user:        7.1  user+sys:        7.2  wallclock:        7.2
  
  start of program solv
  
   number of surface charges from PBF   13352
   sum of surface charges     -0.00033
   
  nuclear repulsion energy.......   20717.504491174 hartrees
  Peak memory usage:    701 Mb
  
  end of program solv
   
 Time(solv)  user:       34.0  user+sys:       34.0  wallclock:       34.7
  
  start of program scf
  
  
       i  u  d  i  g                   
       t  p  i  c  r                                 RMS    maximum
       e  d  i  u  i                       energy  density   DIIS  
       r  t  s  t  d       total energy    change  change    error 
  
etot    1  N  N  1  U   -5575.57134319385           8.4E-06  1.8E-04
etot    2  N  N  1  U   -5575.57134583211  2.6E-06  0.0E+00  0.0E+00
  
  
 Energy components, in hartrees:
   (A)  Total zero-electron terms....   20722.04506790903
   (B)    Nuclear-nuclear............   20717.50449117393
   (C)    Nuclear-solvent............       4.54057673510
   (E)  Total one-electron terms.....  -48971.42108420862
   (F)    Electron-nuclear...........  -54502.92509948387
   (G)    Electron-solvent...........      -4.59115287370
   (H)    Kinetic....................    5536.09516814895
   (I)  Total two-electron terms.....   22673.80467046749
   (J)    Coulomb....................   23325.07230193929
   (K)    Exchange+Correlation.......    -651.26763147181
   (L)  Electronic energy............  -26297.61641374114  (E+I)
   (N)  Total quantum mech. energy...   -5575.57134583211  (A+L)
   (O)  Gas phase energy.............   -5575.52287807683
   (P)  Solution phase energy........   -5575.54605776281  (Q+R+S)
   (Q)    Total solute energy........   -5575.52076969351  (N-C-G)
   (R)    Total solvent energy.......      -0.02528806930  (C/2+G/2)
   (S)    Solute cavity energy.......       0.00000000000
   (U)  Reorganization energy........       0.00210838332  (Q-O)
   (V)  Solvation energy.............      -0.02317968598  (P-O)
  
 SCFE:  Solution phase energy: DFT(m06-2x)      -5575.54605776281 hartrees
        SCF iterations:   2
  
 
 HOMO energy:    -0.30300
 LUMO energy:    -0.07118
 
  Orbital energies (hartrees): 
   -72.86649   -68.27568   -55.17297   -45.95824   -42.90080   -34.40738
   -29.04143   -26.47025   -26.33860   -24.60643   -23.94869   -22.64113
   -22.37430   -21.03411   -18.60631   -18.46707   -18.34469   -17.39454
   -16.95457   -14.52940   -14.05105   -13.67641   -13.66700   -13.56225
   -13.38027   -12.83881   -12.81932   -12.69280   -12.43464   -12.33244
   -12.31097   -12.09601   -12.07768   -12.02279   -11.99876   -11.99464
   -11.84445   -11.40844   -11.38782   -11.35829   -11.35438   -11.13742
   -10.98456   -10.96556   -10.92738   -10.86143   -10.85165   -10.84496
   -10.81272   -10.80666   -10.70579   -10.70395   -10.70259   -10.68906
   -10.66904   -10.65659   -10.65228   -10.65201   -10.64641   -10.63654
   -10.63032   -10.62698   -10.62402   -10.61589   -10.61237   -10.58354
   -10.58329   -10.58031   -10.57938   -10.57925   -10.57200   -10.54662
   -10.53532   -10.52345   -10.52224   -10.51076   -10.49598   -10.48330
   -10.48200   -10.47313   -10.47301   -10.47130   -10.43550   -10.41758
   -10.41028   -10.36806   -10.29330   -10.24032   -10.14083   -10.13471
    -9.71432    -9.70701    -9.56608    -9.42335    -9.38392    -8.61605
    -8.16374    -6.96181    -6.79885    -6.53254    -6.51664    -6.38796
    -6.26173    -6.18104    -5.32338    -4.78562    -4.69990    -4.34729
    -4.13637    -3.96864    -3.94681    -3.88162    -1.39641    -1.36545
    -1.30483    -1.25397    -1.15246    -1.14423    -1.06531    -1.06171
    -1.05871    -1.01695    -1.00253    -0.98921    -0.98715    -0.98236
    -0.95696    -0.94731    -0.94399    -0.92361    -0.92277    -0.91939
    -0.89656    -0.89197    -0.89054    -0.88561    -0.88353    -0.88061
    -0.87926    -0.87279    -0.87207    -0.86809    -0.86696    -0.86116
    -0.85834    -0.83771    -0.83762    -0.83695    -0.83588    -0.82959
    -0.82366    -0.81841    -0.81539    -0.80734    -0.80661    -0.80402
    -0.78424    -0.77650    -0.77635    -0.76477    -0.75289    -0.73416
    -0.72277    -0.71556    -0.71409    -0.71241    -0.71043    -0.70219
    -0.68370    -0.68124    -0.68096    -0.68062    -0.67793    -0.67715
    -0.67453    -0.67247    -0.67165    -0.66499    -0.66419    -0.66264
    -0.65917    -0.65667    -0.65666    -0.65627    -0.65347    -0.65251
    -0.64849    -0.64412    -0.64377    -0.64063    -0.63041    -0.62898
    -0.61643    -0.61374    -0.61259    -0.60556    -0.60526    -0.60203
    -0.60094    -0.59704    -0.59467    -0.59295    -0.59111    -0.59033
    -0.58181    -0.58111    -0.57776    -0.57716    -0.57682    -0.57437
    -0.57435    -0.57246    -0.56486    -0.56462    -0.55760    -0.55737
    -0.55328    -0.55289    -0.54892    -0.54874    -0.54778    -0.54722
    -0.54705    -0.54449    -0.54156    -0.54064    -0.54015    -0.53985
    -0.53951    -0.53533    -0.53467    -0.53288    -0.53266    -0.53130
    -0.52821    -0.52700    -0.52660    -0.52469    -0.52259    -0.52069
    -0.51835    -0.51785    -0.51780    -0.51646    -0.51521    -0.51133
    -0.51116    -0.51050    -0.50892    -0.50601    -0.50377    -0.50147
    -0.50034    -0.49958    -0.49864    -0.49721    -0.49568    -0.49553
    -0.49415    -0.49246    -0.49145    -0.49132    -0.49091    -0.48833
    -0.48788    -0.48650    -0.48070    -0.47593    -0.47483    -0.47434
    -0.47126    -0.46692    -0.46626    -0.46552    -0.46167    -0.46098
    -0.45893    -0.45695    -0.45398    -0.45240    -0.45176    -0.45076
    -0.44762    -0.44755    -0.44729    -0.44518    -0.44482    -0.44471
    -0.44462    -0.44409    -0.44050    -0.43834    -0.43384    -0.43324
    -0.43322    -0.43039    -0.42954    -0.42768    -0.42557    -0.42417
    -0.42380    -0.42316    -0.41735    -0.41714    -0.41709    -0.41538
    -0.41359    -0.41099    -0.41086    -0.41032    -0.40482    -0.40310
    -0.40089    -0.39899    -0.39861    -0.39390    -0.38081    -0.37819
    -0.37752    -0.37733    -0.37120    -0.37095    -0.35827    -0.35074
    -0.34401    -0.34217    -0.33359    -0.33071    -0.32563    -0.32283
    -0.32167    -0.31765    -0.31732    -0.31204    -0.30772    -0.30696
    -0.30595    -0.30562    -0.30380    -0.30300    -0.07118    -0.03234
    -0.01504    -0.01404     0.00126     0.00767     0.01669     0.01779
     0.01935     0.02102
 
  Peak memory usage:    859 Mb
  
  end of program scf
   
 Time(scf)  user:     2266.0  user+sys:     2275.0  wallclock:     2294.7
  
  start of program sole
  
    SCRF                   solvation energy
  iteration          Hartrees            kcal/mol
     0               0.0000000            0.0000
     1              -0.0215543          -13.5255
     2              -0.0231797          -14.5455
  
  solvation energy not yet converged... 
  
  Peak memory usage:    635 Mb
  
  end of program sole
   
 Time(sole)  user:        0.0  user+sys:        0.0  wallclock:        0.1
  
  start of program ch
  
  gridpoints used for charge fit        16824
    out of a possible maximum of        16824
  
   Electrostatic potential fitting constrained to reproduce
     total charge:                yes
     dipole moment:               no 
     traceless quadrupole moment: no 
     traceless octapole moment:   no 
  
  Atomic charges from electrostatic potential: 
   
 Atom       C1           C2           C3           C4           C5      
 Charge   -0.03275     -0.09760     -0.19258      0.19399      0.04498
   
 Atom       C6           C7           C8           C9           C10     
 Charge   -0.22396     -0.29277     -0.11744      0.20937     -0.21498
   
 Atom       C11          O12          Si13         C14          C15     
 Charge   -0.01591     -0.33429     -0.01099      0.14772      0.27725
   
 Atom       C16          C17          C18          C19          C20     
 Charge    0.34900     -0.20488     -0.53510     -0.31235      0.09686
   
 Atom       Si21         O22          C23          C24          P25     
 Charge    0.01292     -0.39103     -0.16366     -0.10307      1.01616
   
 Atom       O26          C27          C28          C29          C30     
 Charge   -0.63885      0.23437      0.13192     -0.12595      0.15807
   
 Atom       C31          C32          C33          C34          C35     
 Charge    0.09494      0.08090     -0.28678     -0.17969     -0.11683
   
 Atom       C36          C37          C38          C39          C40     
 Charge   -0.19473      0.07468     -0.08929     -0.04675     -0.30258
   
 Atom       C41          C42          C43          C44          C45     
 Charge   -0.09953     -0.25242     -0.11318     -0.17252     -0.02148
   
 Atom       C46          C47          C48          C49          C50     
 Charge   -0.23691     -0.10325     -0.16924     -0.14996     -0.12829
   
 Atom       C51          C52          C53          C54          C55     
 Charge   -0.25918     -0.05078     -0.19768     -0.19482     -0.15107
   
 Atom       C56          C57          C58          C59          C60     
 Charge   -0.06659     -0.15631     -0.15780     -0.08382     -0.18601
   
 Atom       C61          C62          C63          C64          C65     
 Charge   -0.13317     -0.13295     -0.08784     -0.39864      0.44440
   
 Atom       C66          C67          C68          C69          N70     
 Charge   -0.16741     -0.14165     -0.15711     -0.19661     -0.17720
   
 Atom       S71          O72          O73          C74          C75     
 Charge    0.68827     -0.43992     -0.42242      0.27906     -0.22530
   
 Atom       C76          C77          C78          N79          N80     
 Charge   -0.00874     -0.26992      0.19871     -0.28867     -0.07677
   
 Atom       C81          C82          C83          C84          H85     
 Charge   -0.03845     -0.21681     -0.22901      0.23343      0.07408
   
 Atom       H86          H87          H88          H89          H90     
 Charge    0.15484      0.14841      0.15439      0.14203      0.14429
   
 Atom       H91          H92          H93          H94          H95     
 Charge    0.21434      0.17136      0.15009      0.13876      0.17021
   
 Atom       H96          H97          H98          H99          H100    
 Charge    0.12651      0.10932      0.10664      0.07362      0.11601
   
 Atom       H101         H102         H103         H104         H105    
 Charge    0.08741      0.15781      0.13030      0.13662      0.11873
   
 Atom       H106         H107         H108         H109         H110    
 Charge    0.09284      0.07826      0.15555      0.11474      0.14614
   
 Atom       H111         H112         H113         H114         H115    
 Charge    0.14296      0.14101      0.15252      0.12250      0.14568
   
 Atom       H116         H117         H118         H119         H120    
 Charge    0.14839      0.14160      0.09797      0.14664      0.14483
   
 Atom       H121         H122         H123         H124         H125    
 Charge    0.12057      0.15067      0.13894      0.14050      0.14975
   
 Atom       H126         H127         H128         H129         H130    
 Charge    0.18684      0.10320      0.14925      0.15384      0.12000
   
 Atom       H131         H132         H133         H134         H135    
 Charge    0.17252      0.15943      0.18725      0.07847      0.30420
   
 Atom       H136         H137         H138         H139         H140    
 Charge    0.17590      0.18486      0.16539     -0.08712      0.22746
   
 Atom       N141         S142         O143         O144         C145    
 Charge   -0.59167      0.68471     -0.44734     -0.48424      0.50606
   
 Atom       F146         F147         F148    
 Charge   -0.14770     -0.16183     -0.12002
  
  sum of atomic charges:     0.000000
   
 RMS Error   9.91E-04 hartrees
 
  Peak memory usage:    588 Mb
  
  end of program ch
   
 Time(ch)  user:       17.0  user+sys:       17.0  wallclock:       18.4
  
  start of program post
  
  Writing input files for PBF
  Peak memory usage:    536 Mb
  
  end of program post
   
 Time(post)  user:        0.0  user+sys:        0.0  wallclock:        0.2

  start of program pbf

Pbf Version 4.00

Molecular surface area:      840.42017   [A2]
Reaction field energy:       -24.94519   [kT]
  Peak memory usage: 559 Mb

  end of program pbf

 Time(pbf)  user:        7.1  user+sys:        7.2  wallclock:        7.2
  
  start of program solv
  
   number of surface charges from PBF   13352
   sum of surface charges     -0.00033
   
  nuclear repulsion energy.......   20717.504491174 hartrees
  Peak memory usage:    701 Mb
  
  end of program solv
   
 Time(solv)  user:       34.0  user+sys:       34.0  wallclock:       34.8
  
  start of program scf
  
  
       i  u  d  i  g                   
       t  p  i  c  r                                 RMS    maximum
       e  d  i  u  i                       energy  density   DIIS  
       r  t  s  t  d       total energy    change  change    error 
  
etot    1  N  N  1  U   -5575.57194697420           7.9E-06  2.1E-04
etot    2  N  N  1  U   -5575.57191196907 -3.5E-05  0.0E+00  0.0E+00
  
  
 Energy components, in hartrees:
   (A)  Total zero-electron terms....   20722.13866119462
   (B)    Nuclear-nuclear............   20717.50449117393
   (C)    Nuclear-solvent............       4.63417002069
   (E)  Total one-electron terms.....  -48970.94518366140
   (F)    Electron-nuclear...........  -54502.33471535217
   (G)    Electron-solvent...........      -4.68508000925
   (H)    Kinetic....................    5536.07461170002
   (I)  Total two-electron terms.....   22673.23461049771
   (J)    Coulomb....................   23324.50046682853
   (K)    Exchange+Correlation.......    -651.26585633082
   (L)  Electronic energy............  -26297.71057316368  (E+I)
   (N)  Total quantum mech. energy...   -5575.57191196907  (A+L)
   (O)  Gas phase energy.............   -5575.52287807683
   (P)  Solution phase energy........   -5575.54645697478  (Q+R+S)
   (Q)    Total solute energy........   -5575.52100198050  (N-C-G)
   (R)    Total solvent energy.......      -0.02545499428  (C/2+G/2)
   (S)    Solute cavity energy.......       0.00000000000
   (U)  Reorganization energy........       0.00187609632  (Q-O)
   (V)  Solvation energy.............      -0.02357889796  (P-O)
  
 SCFE:  Solution phase energy: DFT(m06-2x)      -5575.54645697478 hartrees
        SCF iterations:   2
  
 
 HOMO energy:    -0.24807
 LUMO energy:    -0.07260
 
  Orbital energies (hartrees): 
   -90.18187   -90.14917   -78.21347   -67.00925   -67.00642   -25.28243
   -25.28111   -25.27877   -19.69558   -19.69164   -19.65453   -19.65190
   -19.62556   -19.62409   -19.60460   -14.82104   -14.81951   -14.80979
   -14.75037   -10.79963   -10.67094   -10.64638   -10.62307   -10.62297
   -10.62096   -10.61817   -10.59942   -10.59807   -10.59731   -10.59065
   -10.58900   -10.58009   -10.57095   -10.57016   -10.56899   -10.56793
   -10.56782   -10.56539   -10.56401   -10.56397   -10.56356   -10.56330
   -10.56138   -10.55805   -10.55513   -10.55289   -10.55262   -10.55255
   -10.55202   -10.55161   -10.55152   -10.55118   -10.55107   -10.55074
   -10.55056   -10.54966   -10.54923   -10.54913   -10.54873   -10.54759
   -10.54737   -10.54730   -10.54702   -10.54699   -10.54698   -10.54690
   -10.54653   -10.54626   -10.54463   -10.54407   -10.54397   -10.54373
   -10.54350   -10.54277   -10.54256   -10.54225   -10.54207   -10.54195
   -10.54158   -10.54120   -10.54120   -10.54066   -10.54038   -10.53918
   -10.53821   -10.53762   -10.53490   -10.53341   -10.53338   -10.52739
   -10.52705   -10.52596    -8.49108    -8.45844    -6.99292    -6.41342
    -6.41232    -6.41173    -6.38026    -6.37990    -6.37962    -5.54032
    -5.53788    -5.11121    -5.11054    -5.10879    -3.84999    -3.84978
    -3.84974    -3.84766    -3.84739    -3.84710    -1.44896    -1.35836
    -1.35594    -1.25069    -1.23065    -1.21633    -1.18807    -1.13846
    -1.11267    -1.10515    -1.09761    -1.09071    -1.06281    -0.98653
    -0.97712    -0.97451    -0.96395    -0.94624    -0.94392    -0.94223
    -0.93660    -0.93652    -0.93635    -0.93445    -0.92015    -0.90745
    -0.90563    -0.89800    -0.88700    -0.88414    -0.85533    -0.85090
    -0.84454    -0.84260    -0.84135    -0.83811    -0.83516    -0.83486
    -0.83334    -0.82923    -0.82897    -0.82840    -0.82759    -0.82655
    -0.82490    -0.82265    -0.82204    -0.81964    -0.81880    -0.81400
    -0.79754    -0.76803    -0.75669    -0.75069    -0.72549    -0.71875
    -0.70738    -0.70425    -0.70278    -0.69689    -0.69121    -0.68654
    -0.68116    -0.68013    -0.67806    -0.67741    -0.67599    -0.67562
    -0.67291    -0.67222    -0.66932    -0.66906    -0.66893    -0.66589
    -0.66512    -0.66284    -0.65811    -0.65627    -0.65576    -0.64836
    -0.64759    -0.64143    -0.63840    -0.62563    -0.61919    -0.61542
    -0.60699    -0.60184    -0.59804    -0.59037    -0.58253    -0.58045
    -0.58029    -0.57829    -0.57776    -0.57500    -0.57427    -0.57264
    -0.57067    -0.56385    -0.55742    -0.55265    -0.55048    -0.54999
    -0.54817    -0.54529    -0.54105    -0.53818    -0.53563    -0.53378
    -0.52862    -0.52635    -0.52275    -0.52136    -0.52004    -0.51916
    -0.51770    -0.51702    -0.51563    -0.51294    -0.51229    -0.51126
    -0.50975    -0.50812    -0.50634    -0.50412    -0.50158    -0.50103
    -0.50016    -0.49979    -0.49773    -0.49645    -0.49569    -0.49331
    -0.49289    -0.49211    -0.49099    -0.48990    -0.48913    -0.48745
    -0.48440    -0.48192    -0.48125    -0.48016    -0.47871    -0.47560
    -0.47551    -0.47397    -0.47349    -0.47121    -0.47015    -0.46261
    -0.46072    -0.45605    -0.45187    -0.45077    -0.44904    -0.44636
    -0.44396    -0.44214    -0.43580    -0.43347    -0.43120    -0.42942
    -0.42819    -0.42500    -0.42415    -0.42352    -0.42136    -0.41935
    -0.41746    -0.41681    -0.41477    -0.41439    -0.40872    -0.40753
    -0.40480    -0.40078    -0.39695    -0.39459    -0.39342    -0.39280
    -0.39089    -0.39023    -0.38716    -0.38544    -0.38490    -0.38379
    -0.38348    -0.38129    -0.37603    -0.37531    -0.37460    -0.37203
    -0.36854    -0.35534    -0.35439    -0.35318    -0.35169    -0.34917
    -0.34383    -0.34330    -0.34087    -0.33862    -0.33853    -0.33647
    -0.33398    -0.33087    -0.32553    -0.32534    -0.31660    -0.30548
    -0.30455    -0.30283    -0.30130    -0.30015    -0.29792    -0.29518
    -0.29358    -0.29218    -0.29062    -0.28856    -0.28587    -0.28384
    -0.28126    -0.28006    -0.27210    -0.24807    -0.07260    -0.03368
    -0.01572    -0.01490     0.00087     0.00682     0.01623     0.01714
     0.01887     0.02056
 
  Peak memory usage:    846 Mb
  
  end of program scf
   
 Time(scf)  user:     2243.0  user+sys:     2252.0  wallclock:     2266.6
  
  start of program sole
  
    SCRF                   solvation energy
  iteration          Hartrees            kcal/mol
     0               0.0000000            0.0000
     1              -0.0215543          -13.5255
     2              -0.0231797          -14.5455
     3              -0.0235789          -14.7960
  
  solvation energy not yet converged... 
  
  Peak memory usage:    635 Mb
  
  end of program sole
   
 Time(sole)  user:        0.0  user+sys:        0.0  wallclock:        0.1
  
  start of program ch
  
  gridpoints used for charge fit        16824
    out of a possible maximum of        16824
  
   Electrostatic potential fitting constrained to reproduce
     total charge:                yes
     dipole moment:               no 
     traceless quadrupole moment: no 
     traceless octapole moment:   no 
  
  Atomic charges from electrostatic potential: 
   
 Atom       C1           C2           C3           C4           C5      
 Charge   -0.03077     -0.09801     -0.19383      0.19355      0.04577
   
 Atom       C6           C7           C8           C9           C10     
 Charge   -0.22411     -0.29442     -0.11876      0.20980     -0.21504
   
 Atom       C11          O12          Si13         C14          C15     
 Charge   -0.01470     -0.33320     -0.01092      0.14783      0.27756
   
 Atom       C16          C17          C18          C19          C20     
 Charge    0.34901     -0.20360     -0.53624     -0.31172      0.10010
   
 Atom       Si21         O22          C23          C24          P25     
 Charge    0.01200     -0.39146     -0.16576     -0.10457      1.01620
   
 Atom       O26          C27          C28          C29          C30     
 Charge   -0.64079      0.23581      0.13215     -0.12287      0.15870
   
 Atom       C31          C32          C33          C34          C35     
 Charge    0.09713      0.08173     -0.28659     -0.18068     -0.11629
   
 Atom       C36          C37          C38          C39          C40     
 Charge   -0.19354      0.07302     -0.08930     -0.04538     -0.30008
   
 Atom       C41          C42          C43          C44          C45     
 Charge   -0.09960     -0.25444     -0.11321     -0.17153     -0.01772
   
 Atom       C46          C47          C48          C49          C50     
 Charge   -0.23986     -0.10503     -0.16968     -0.15072     -0.12935
   
 Atom       C51          C52          C53          C54          C55     
 Charge   -0.25923     -0.05172     -0.19859     -0.19472     -0.15289
   
 Atom       C56          C57          C58          C59          C60     
 Charge   -0.06932     -0.15189     -0.16101     -0.08548     -0.18603
   
 Atom       C61          C62          C63          C64          C65     
 Charge   -0.13428     -0.13424     -0.08987     -0.39675      0.44937
   
 Atom       C66          C67          C68          C69          N70     
 Charge   -0.16779     -0.14530     -0.15992     -0.19096     -0.17226
   
 Atom       S71          O72          O73          C74          C75     
 Charge    0.69312     -0.44231     -0.42597      0.28148     -0.22455
   
 Atom       C76          C77          C78          N79          N80     
 Charge   -0.01252     -0.27337      0.19661     -0.28342     -0.07385
   
 Atom       C81          C82          C83          C84          H85     
 Charge   -0.04586     -0.22083     -0.23044      0.23411      0.07312
   
 Atom       H86          H87          H88          H89          H90     
 Charge    0.15516      0.14850      0.15395      0.14244      0.14412
   
 Atom       H91          H92          H93          H94          H95     
 Charge    0.21471      0.17120      0.15037      0.13902      0.17060
   
 Atom       H96          H97          H98          H99          H100    
 Charge    0.12627      0.10910      0.10625      0.07419      0.11599
   
 Atom       H101         H102         H103         H104         H105    
 Charge    0.08731      0.15701      0.13124      0.13647      0.11884
   
 Atom       H106         H107         H108         H109         H110    
 Charge    0.09236      0.07761      0.15577      0.11489      0.14625
   
 Atom       H111         H112         H113         H114         H115    
 Charge    0.14316      0.14118      0.15252      0.12262      0.14576
   
 Atom       H116         H117         H118         H119         H120    
 Charge    0.14829      0.14198      0.09819      0.14592      0.14546
   
 Atom       H121         H122         H123         H124         H125    
 Charge    0.12076      0.15074      0.13913      0.14068      0.15016
   
 Atom       H126         H127         H128         H129         H130    
 Charge    0.18672      0.10305      0.14980      0.15453      0.11901
   
 Atom       H131         H132         H133         H134         H135    
 Charge    0.17201      0.16023      0.18799      0.07841      0.30562
   
 Atom       H136         H137         H138         H139         H140    
 Charge    0.17697      0.18605      0.16588     -0.08762      0.22691
   
 Atom       N141         S142         O143         O144         C145    
 Charge   -0.58876      0.68289     -0.44619     -0.48516      0.50645
   
 Atom       F146         F147         F148    
 Charge   -0.14789     -0.16228     -0.11982
  
  sum of atomic charges:     0.000000
   
 RMS Error   9.95E-04 hartrees
 
  Peak memory usage:    588 Mb
  
  end of program ch
   
 Time(ch)  user:       17.0  user+sys:       17.0  wallclock:       19.5
  
  start of program post
  
  Writing input files for PBF
  Peak memory usage:    536 Mb
  
  end of program post
   
 Time(post)  user:        0.0  user+sys:        0.0  wallclock:        0.2

  start of program pbf

Pbf Version 4.00

Molecular surface area:      840.42017   [A2]
Reaction field energy:       -24.68137   [kT]
  Peak memory usage: 559 Mb

  end of program pbf

 Time(pbf)  user:        7.3  user+sys:        7.4  wallclock:        7.8
  
  start of program solv
  
   number of surface charges from PBF   13352
   sum of surface charges     -0.00032
   
  nuclear repulsion energy.......   20717.504491174 hartrees
  Peak memory usage:    701 Mb
  
  end of program solv
   
 Time(solv)  user:       34.0  user+sys:       34.0  wallclock:       34.8
  
  start of program scf
  
  
       i  u  d  i  g                   
       t  p  i  c  r                                 RMS    maximum
       e  d  i  u  i                       energy  density   DIIS  
       r  t  s  t  d       total energy    change  change    error 
  
etot    1  N  N  1  U   -5575.57166544237           1.3E-05  3.6E-04
etot    2  N  Y  1  U   -5575.57154813776 -1.2E-04  8.3E-06  6.7E-04
etot    3  N  Y  1  U   -5575.57171357032  1.7E-04  2.9E-07  1.3E-05
etot    4  N  N  1  U   -5575.57171369014  1.2E-07  0.0E+00  0.0E+00
  
  
 Energy components, in hartrees:
   (A)  Total zero-electron terms....   20722.08445954521
   (B)    Nuclear-nuclear............   20717.50449117393
   (C)    Nuclear-solvent............       4.57996837128
   (E)  Total one-electron terms.....  -48971.22003345706
   (F)    Electron-nuclear...........  -54502.67249157513
   (G)    Electron-solvent...........      -4.63076731683
   (H)    Kinetic....................    5536.08322543491
   (I)  Total two-electron terms.....   22673.56386022170
   (J)    Coulomb....................   23324.83032887710
   (K)    Exchange+Correlation.......    -651.26646865540
   (L)  Electronic energy............  -26297.65617323535  (E+I)
   (N)  Total quantum mech. energy...   -5575.57171369014  (A+L)
   (O)  Gas phase energy.............   -5575.52287807683
   (P)  Solution phase energy........   -5575.54631421737  (Q+R+S)
   (Q)    Total solute energy........   -5575.52091474459  (N-C-G)
   (R)    Total solvent energy.......      -0.02539947277  (C/2+G/2)
   (S)    Solute cavity energy.......       0.00000000000
   (U)  Reorganization energy........       0.00196333224  (Q-O)
   (V)  Solvation energy.............      -0.02343614054  (P-O)
  
 SCFE:  Solution phase energy: DFT(m06-2x)      -5575.54631421737 hartrees
        SCF iterations:   4
  
 
 HOMO energy:    -0.24762
 LUMO energy:    -0.07165
 
  Orbital energies (hartrees): 
   -90.17911   -90.14778   -78.21232   -67.00828   -67.00563   -25.28133
   -25.28053   -25.27841   -19.69422   -19.69082   -19.65518   -19.65111
   -19.62431   -19.62343   -19.60468   -14.81981   -14.81432   -14.80650
   -14.74825   -10.79883   -10.66662   -10.64326   -10.62195   -10.62158
   -10.62101   -10.62073   -10.60067   -10.59755   -10.59586   -10.59221
   -10.58596   -10.58064   -10.57063   -10.57029   -10.56993   -10.56724
   -10.56712   -10.56687   -10.56495   -10.56415   -10.56351   -10.56249
   -10.56173   -10.55841   -10.55484   -10.55246   -10.55246   -10.55239
   -10.55208   -10.55185   -10.55160   -10.55128   -10.55082   -10.55079
   -10.55053   -10.55011   -10.54951   -10.54918   -10.54907   -10.54785
   -10.54748   -10.54732   -10.54716   -10.54696   -10.54695   -10.54676
   -10.54630   -10.54610   -10.54464   -10.54442   -10.54395   -10.54339
   -10.54296   -10.54273   -10.54267   -10.54217   -10.54162   -10.54148
   -10.54096   -10.54043   -10.54034   -10.54018   -10.53891   -10.53876
   -10.53666   -10.53549   -10.53376   -10.53281   -10.53270   -10.52623
   -10.52621   -10.52507    -8.48844    -8.45709    -6.99178    -6.41077
    -6.40969    -6.40908    -6.37891    -6.37854    -6.37826    -5.53937
    -5.53711    -5.11007    -5.10940    -5.10766    -3.84904    -3.84883
    -3.84878    -3.84689    -3.84662    -3.84633    -1.44821    -1.35751
    -1.35531    -1.24915    -1.22958    -1.21518    -1.18702    -1.13735
    -1.11254    -1.10407    -1.09594    -1.09015    -1.05951    -0.98557
    -0.97633    -0.97385    -0.96366    -0.94613    -0.94378    -0.94211
    -0.93637    -0.93606    -0.93588    -0.93397    -0.91994    -0.90714
    -0.90467    -0.89845    -0.88656    -0.88313    -0.85508    -0.85072
    -0.84425    -0.84252    -0.84110    -0.83808    -0.83507    -0.83472
    -0.83294    -0.82890    -0.82854    -0.82800    -0.82716    -0.82614
    -0.82458    -0.82227    -0.82138    -0.81910    -0.81799    -0.81251
    -0.79714    -0.76689    -0.75583    -0.75008    -0.72470    -0.71773
    -0.70686    -0.70368    -0.70234    -0.69648    -0.69102    -0.68631
    -0.68055    -0.67994    -0.67782    -0.67683    -0.67577    -0.67528
    -0.67230    -0.67195    -0.66937    -0.66869    -0.66832    -0.66544
    -0.66474    -0.66262    -0.65779    -0.65565    -0.65523    -0.64816
    -0.64712    -0.64056    -0.63741    -0.62501    -0.61821    -0.61363
    -0.60660    -0.60147    -0.59766    -0.58975    -0.58239    -0.58016
    -0.57978    -0.57806    -0.57711    -0.57444    -0.57383    -0.57227
    -0.56976    -0.56337    -0.55713    -0.55184    -0.54982    -0.54931
    -0.54752    -0.54482    -0.54054    -0.53747    -0.53510    -0.53362
    -0.52821    -0.52582    -0.52227    -0.52053    -0.51952    -0.51896
    -0.51675    -0.51639    -0.51536    -0.51232    -0.51182    -0.51082
    -0.50912    -0.50764    -0.50585    -0.50386    -0.50129    -0.50066
    -0.49993    -0.49945    -0.49746    -0.49595    -0.49524    -0.49291
    -0.49244    -0.49191    -0.49048    -0.48933    -0.48849    -0.48700
    -0.48426    -0.48180    -0.48111    -0.48005    -0.47886    -0.47565
    -0.47528    -0.47363    -0.47296    -0.47105    -0.46981    -0.46223
    -0.46043    -0.45575    -0.45158    -0.45043    -0.44870    -0.44596
    -0.44358    -0.44178    -0.43523    -0.43281    -0.43077    -0.42890
    -0.42714    -0.42475    -0.42378    -0.42321    -0.42087    -0.41870
    -0.41699    -0.41616    -0.41428    -0.41394    -0.40761    -0.40666
    -0.40426    -0.40039    -0.39664    -0.39439    -0.39277    -0.39220
    -0.39071    -0.39007    -0.38655    -0.38507    -0.38434    -0.38328
    -0.38290    -0.38070    -0.37546    -0.37478    -0.37374    -0.37151
    -0.36770    -0.35447    -0.35351    -0.35230    -0.35077    -0.34851
    -0.34329    -0.34277    -0.34071    -0.33797    -0.33779    -0.33570
    -0.33308    -0.33010    -0.32501    -0.32456    -0.31641    -0.30526
    -0.30428    -0.30254    -0.30120    -0.29999    -0.29770    -0.29478
    -0.29313    -0.29159    -0.29014    -0.28799    -0.28547    -0.28338
    -0.28060    -0.27944    -0.27175    -0.24762    -0.07165    -0.03280
    -0.01525    -0.01446     0.00108     0.00729     0.01650     0.01757
     0.01918     0.02083
 
  Peak memory usage:    859 Mb
  
  end of program scf
   
 Time(scf)  user:     6862.0  user+sys:     6891.0  wallclock:     8056.6
  
  start of program sole
  
    SCRF                   solvation energy
  iteration          Hartrees            kcal/mol
     0               0.0000000            0.0000
     1              -0.0215543          -13.5255
     2              -0.0231797          -14.5455
     3              -0.0235789          -14.7960
     4              -0.0234361          -14.7064
  
  stopping: solvation energy converged
  
  iterations:   4    sfinal:    -14.7064 kcal/mol
  
  Peak memory usage:    635 Mb
  
  end of program sole
   
 Time(sole)  user:        0.0  user+sys:        0.0  wallclock:        1.5
  
  start of program post
  
  Writing input files for PBF
  Peak memory usage:    536 Mb
  
  end of program post
   
 Time(post)  user:        0.0  user+sys:        0.0  wallclock:        0.5

 Total cpu seconds     user:   58063.000   user+sys:   58343.000
  
 Total elapsed time:    85129 seconds

Job MO6-2X-Toru-SiPh3-NTf-Type-I-Z-9-chkp2-unrestrained.mol completed on tethys at Fri Nov 25 14:38:15 2016
