[running at reduced cpu priority]
Job ModelCatalyst-8BindtoN-4-TS-fine-grid-uf-acc-sol_3 started on tethys at Wed Jan 25 21:26:00 2017
jobid: tethys-0-588917e7 
Jaguar version 8.4, release  16
Molecular Point Group: C1      
Point Group used: C1
pre (input checking) done.
onee (1-electron integrals) done.
hfig (HF initial guess) done.
probe (project orbitals) done.
grid (grid generation) done.
rwr (Q operators) done.
scf type: DFT=M06-2X
  
       i  u  d  i  g
       t  p  i  c  r                                 RMS    maximum
       e  d  i  u  i                       energy  density   DIIS  
       r  t  s  t  d       total energy    change  change    error 
  
etot    1  N  N  1  U   -2987.73992923752           4.9E-03  1.4E-01
etot    2  N  Y  1  U   -2990.61460298721  2.9E+00  5.4E-03  1.2E-01
etot    3  N  Y  1  U   -2990.14598050105 -4.7E-01  4.7E-03  1.5E-01
etot    4  N  Y  1  U   -2993.83105374245  3.7E+00  1.1E-03  4.3E-02
etot    5  N  Y  1  U   -2994.08168644156  2.5E-01  4.1E-04  2.1E-02
etot    6  N  Y  1  U   -2994.11365129846  3.2E-02  1.4E-04  1.0E-02
etot    7  N  Y  1  U   -2994.11890466909  5.3E-03  4.3E-05  2.9E-03
etot    8  N  Y  1  U   -2994.11946593604  5.6E-04  1.5E-05  3.2E-04
etot    9  N  N  1  U   -2994.11950869351  4.3E-05  0.0E+00  0.0E+00
scf (DFT) done.
--------gas phase calculation complete----------------------
ch (properties) done.
post (output conversion) done.
pbf (Poisson-Boltzmann solver) done.
solv (solvation checking) done.
  
       i  u  d  i  g
       t  p  i  c  r                                 RMS    maximum
       e  d  i  u  i                       energy  density   DIIS  
       r  t  s  t  d       total energy    change  change    error 
  
etot    1  N  N  1  U   -2994.16317473264           1.5E-04  1.7E-03
etot    2  N  Y  1  U   -2994.16447045412  1.3E-03  4.3E-05  1.4E-03
etot    3  N  Y  1  U   -2994.16472422377  2.5E-04  1.3E-05  7.0E-04
etot    4  N  Y  1  U   -2994.16479037551  6.6E-05  5.4E-06  1.3E-04
etot    5  N  N  1  U   -2994.16479618556  5.8E-06  0.0E+00  0.0E+00
scf (DFT) done.
sole (solvation energy) done.
----------solvation iteration  1 complete------------------
ch (properties) done.
post (output conversion) done.
pbf (Poisson-Boltzmann solver) done.
solv (solvation checking) done.
  
       i  u  d  i  g
       t  p  i  c  r                                 RMS    maximum
       e  d  i  u  i                       energy  density   DIIS  
       r  t  s  t  d       total energy    change  change    error 
  
etot    1  N  N  1  U   -2994.16862684600           1.8E-05  2.8E-04
etot    2  N  N  1  U   -2994.16863907306  1.2E-05  0.0E+00  0.0E+00
scf (DFT) done.
sole (solvation energy) done.
----------solvation iteration  2 complete------------------
ch (properties) done.
post (output conversion) done.
pbf (Poisson-Boltzmann solver) done.
solv (solvation checking) done.
  
       i  u  d  i  g
       t  p  i  c  r                                 RMS    maximum
       e  d  i  u  i                       energy  density   DIIS  
       r  t  s  t  d       total energy    change  change    error 
  
etot    1  N  N  1  U   -2994.16914381279           1.1E-05  2.3E-04
etot    2  N  N  1  U   -2994.16913453215 -9.3E-06  0.0E+00  0.0E+00
scf (DFT) done.
sole (solvation energy) done.
----------solvation iteration  3 complete------------------
ch (properties) done.
post (output conversion) done.
pbf (Poisson-Boltzmann solver) done.
solv (solvation checking) done.
  
       i  u  d  i  g
       t  p  i  c  r                                 RMS    maximum
       e  d  i  u  i                       energy  density   DIIS  
       r  t  s  t  d       total energy    change  change    error 
  
etot    1  N  N  1  U   -2994.16901972685           1.5E-05  3.5E-04
etot    2  N  N  1  U   -2994.16899323694 -2.6E-05  0.0E+00  0.0E+00
scf (DFT) done.
sole (solvation energy) done.
----------solvation iteration  4 complete------------------
ch (properties) done.
post (output conversion) done.
pbf (Poisson-Boltzmann solver) done.
solv (solvation checking) done.
  
       i  u  d  i  g
       t  p  i  c  r                                 RMS    maximum
       e  d  i  u  i                       energy  density   DIIS  
       r  t  s  t  d       total energy    change  change    error 
  
etot    1  N  N  1  U   -2994.16919936716           2.3E-05  5.1E-04
etot    2  N  Y  1  U   -2994.16913749637 -6.2E-05  1.5E-05  8.2E-04
etot    3  N  Y  1  U   -2994.16923872367  1.0E-04  6.8E-07  2.8E-05
etot    4  N  N  1  U   -2994.16923889848  1.7E-07  0.0E+00  0.0E+00
scf (DFT) done.
sole (solvation energy) done.
----------solvation iteration  5 complete------------------
ch (properties) done.
post (output conversion) done.
pbf (Poisson-Boltzmann solver) done.
solv (solvation checking) done.
  
       i  u  d  i  g
       t  p  i  c  r                                 RMS    maximum
       e  d  i  u  i                       energy  density   DIIS  
       r  t  s  t  d       total energy    change  change    error 
  
etot    1  N  N  1  U   -2994.16915281259           1.4E-06  2.3E-05
etot    2  N  N  1  U   -2994.16915282200  9.4E-09  0.0E+00  0.0E+00
scf (DFT) done.
sole (solvation energy) done.
----final solvation iteration  6 complete------------------
post (output conversion) done.
Job ModelCatalyst-8BindtoN-4-TS-fine-grid-uf-acc-sol_3 completed on tethys at Thu Jan 26 02:49:02 2017
