[running at reduced cpu priority]
Job B3LYP_SPE_Toru-SiPh3-NTf-Type-I-E-2-chkp-unrestrained.mol.mol started on tethys at Tue Nov 22 11:46:16 2016
jobid: tethys-0-58343008 
Jaguar version 8.4, release  16
Molecular Point Group: C1      
Point Group used: C1
pre (input checking) done.
onee (1-electron integrals) done.
hfig (HF initial guess) done.
probe (project orbitals) done.
grid (grid generation) done.
rwr (Q operators) done.
scf type: DFT=Becke_3_Parameter/HF+Slater+Becke88+VWN+LYP (B3LYP)
  
       i  u  d  i  g
       t  p  i  c  r                                 RMS    maximum
       e  d  i  u  i                       energy  density   DIIS  
       r  t  s  t  d       total energy    change  change    error 
  
etot    1  N  N  1  U   -5563.79643719778           5.6E-03  1.1E-01
etot    2  N  Y  1  U   -5461.98510277756 -1.0E+02  1.6E-02  2.6E-01
etot    3  N  Y  1  U   -5284.80866852654 -1.8E+02  1.5E-02  3.2E-01
etot    4  N  Y  1  U   -5569.52654618695  2.8E+02  1.0E-02  1.1E-01
etot    5  N  Y  1  U   -5487.66877393757 -8.2E+01  9.9E-03  2.3E-01
etot    6  N  Y  1  U   -5576.36354076417  8.9E+01  1.0E-03  5.6E-02
etot    7  N  Y  1  U   -5576.60489461417  2.4E-01  6.1E-04  3.5E-02
etot    8  N  Y  1  U   -5577.12688770441  5.2E-01  2.2E-04  9.0E-03
etot    9  N  Y  1  U   -5577.19360480279  6.7E-02  8.6E-05  4.6E-03
etot   10  N  Y  1  U   -5577.20309135787  9.5E-03  4.2E-05  2.6E-03
etot   11  N  Y  1  U   -5577.20560025803  2.5E-03  2.3E-05  1.2E-03
etot   12  N  Y  1  U   -5577.20625276057  6.5E-04  1.3E-05  5.8E-04
etot   13  N  Y  1  U   -5577.20643813786  1.9E-04  5.1E-06  2.5E-04
etot   14  N  N  1  U   -5577.20646784339  3.0E-05  0.0E+00  0.0E+00
scf (DFT) done.
--------gas phase calculation complete----------------------
ch (properties) done.
post (output conversion) done.
pbf (Poisson-Boltzmann solver) done.
solv (solvation checking) done.
  
       i  u  d  i  g
       t  p  i  c  r                                 RMS    maximum
       e  d  i  u  i                       energy  density   DIIS  
       r  t  s  t  d       total energy    change  change    error 
  
etot    1  N  N  1  U   -5577.23881193097           5.7E-05  8.2E-04
etot    2  N  Y  1  U   -5577.23919998030  3.9E-04  2.2E-05  9.7E-04
etot    3  N  Y  1  U   -5577.23964618218  4.5E-04  7.6E-06  3.9E-04
etot    4  N  Y  1  U   -5577.23973628086  9.0E-05  3.5E-06  1.5E-04
etot    5  N  N  1  U   -5577.23975000064  1.4E-05  0.0E+00  0.0E+00
scf (DFT) done.
sole (solvation energy) done.
----------solvation iteration  1 complete------------------
ch (properties) done.
post (output conversion) done.
pbf (Poisson-Boltzmann solver) done.
solv (solvation checking) done.
  
       i  u  d  i  g
       t  p  i  c  r                                 RMS    maximum
       e  d  i  u  i                       energy  density   DIIS  
       r  t  s  t  d       total energy    change  change    error 
  
etot    1  N  N  1  U   -5577.24210021432           7.6E-06  1.0E-04
etot    2  N  N  1  U   -5577.24207870414 -2.2E-05  0.0E+00  0.0E+00
scf (DFT) done.
sole (solvation energy) done.
----------solvation iteration  2 complete------------------
ch (properties) done.
post (output conversion) done.
pbf (Poisson-Boltzmann solver) done.
solv (solvation checking) done.
  
       i  u  d  i  g
       t  p  i  c  r                                 RMS    maximum
       e  d  i  u  i                       energy  density   DIIS  
       r  t  s  t  d       total energy    change  change    error 
  
etot    1  N  N  1  U   -5577.24245625305           1.3E-05  1.7E-04
etot    2  N  Y  1  U   -5577.24229459979 -1.6E-04  8.9E-06  4.2E-04
etot    3  N  Y  1  U   -5577.24248640693  1.9E-04  5.1E-07  2.2E-05
etot    4  N  N  1  U   -5577.24248680595  4.0E-07  0.0E+00  0.0E+00
scf (DFT) done.
sole (solvation energy) done.
----------solvation iteration  3 complete------------------
ch (properties) done.
post (output conversion) done.
pbf (Poisson-Boltzmann solver) done.
solv (solvation checking) done.
  
       i  u  d  i  g
       t  p  i  c  r                                 RMS    maximum
       e  d  i  u  i                       energy  density   DIIS  
       r  t  s  t  d       total energy    change  change    error 
  
etot    1  N  N  1  U   -5577.24239621210           8.5E-07  1.4E-05
etot    2  N  N  1  U   -5577.24239579211 -4.2E-07  0.0E+00  0.0E+00
scf (DFT) done.
sole (solvation energy) done.
----final solvation iteration  4 complete------------------
post (output conversion) done.
Job B3LYP_SPE_Toru-SiPh3-NTf-Type-I-E-2-chkp-unrestrained.mol.mol completed on tethys at Tue Nov 22 17:33:32 2016
