Command:    jaguar run jexec.py -jobname Toru-SiPh3-NTf-Type-II-Z-1-chkp-scan-unrestrained-2-19-3-SPE -nsubjobs 1 Toru-SiPh3-NTf-Type-II-Z-1-chkp-scan-unrestrained-2-19-3-SPE.in
[running at reduced cpu priority]
Release:    2017-1
Exec:       /usr/local/shared/schrodinger/current/jaguar-v9.5/bin/Linux-x86_64
Host:       tethys
JobId:      tethys-0-58c81a73
JobDir:     /scratch/ab2144/Toru-SiPh3-NTf-Type-II-Z-1-chkp-scan-unrestrained-2-19-3-SPE
Date:       Tue Mar 14 16:29:42 2017

Contents of /scratch/ab2144/Toru-SiPh3-NTf-Type-II-Z-1-chkp-scan-unrestrained-2-19-3-SPE:
/scratch/ab2144/Toru-SiPh3-NTf-Type-II-Z-1-chkp-scan-unrestrained-2-19-3-SPE/tethys-0-58c81a73.nodes
/scratch/ab2144/Toru-SiPh3-NTf-Type-II-Z-1-chkp-scan-unrestrained-2-19-3-SPE/Toru-SiPh3-NTf-Type-II-Z-1-chkp-scan-unrestrained-2-19-3-SPE.recover
/scratch/ab2144/Toru-SiPh3-NTf-Type-II-Z-1-chkp-scan-unrestrained-2-19-3-SPE/tethys-0-58c81a73
/scratch/ab2144/Toru-SiPh3-NTf-Type-II-Z-1-chkp-scan-unrestrained-2-19-3-SPE/Toru-SiPh3-NTf-Type-II-Z-1-chkp-scan-unrestrained-2-19-3-SPE.log
/scratch/ab2144/Toru-SiPh3-NTf-Type-II-Z-1-chkp-scan-unrestrained-2-19-3-SPE/Toru-SiPh3-NTf-Type-II-Z-1-chkp-scan-unrestrained-2-19-3-SPE.mae
/scratch/ab2144/Toru-SiPh3-NTf-Type-II-Z-1-chkp-scan-unrestrained-2-19-3-SPE/tethys-0-58c81a73.recover
/scratch/ab2144/Toru-SiPh3-NTf-Type-II-Z-1-chkp-scan-unrestrained-2-19-3-SPE/Toru-SiPh3-NTf-Type-II-Z-1-chkp-scan-unrestrained-2-19-3-SPE.in

Executing subprocess:
/usr/local/shared/schrodinger/current/jaguar-v9.5/bin/Linux-x86_64/jexec Toru-SiPh3-NTf-Type-II-Z-1-chkp-scan-unrestrained-2-19-3-SPE.in -cwd -out /scratch/ab2144/Toru-SiPh3-NTf-Type-II-Z-1-chkp-scan-unrestrained-2-19-3-SPE

[running at reduced cpu priority]
[running at reduced cpu priority]
Job Toru-SiPh3-NTf-Type-II-Z-1-chkp-scan-unrestrained-2-19-3-SPE started on tethys at Tue Mar 14 16:29:42 2017
jobid: tethys-0-58c81a73 
Jaguar version 9.5, release  11
Molecular Point Group: C1      
Point Group used: C1
pre (input checking) done.
onee (1-electron integrals) done.
hfig (HF initial guess) done.
probe (project orbitals) done.
grid (grid generation) done.
rwr (Q operators) done.
scf type: DFT=M06-2X
  
       i  u  d  i  g
       t  p  i  c  r                                 RMS    maximum
       e  d  i  u  i                       energy  density   DIIS  
       r  t  s  t  d       total energy    change  change    error 
  
etot    1  N  N  1  U   -5562.73423382818           3.7E-03  9.3E-02
etot    2  N  Y  1  U   -5531.68943269279 -3.1E+01  1.5E-02  2.0E-01
etot    3  N  Y  1  U   -5378.88347934990 -1.5E+02  1.4E-02  3.1E-01
etot    4  N  Y  1  U   -5557.65180998844  1.8E+02  6.3E-03  9.5E-02
etot    5  N  Y  1  U   -5532.73771690742 -2.5E+01  5.1E-03  1.3E-01
etot    6  N  Y  1  U   -5569.62417582279  3.7E+01  1.4E-03  6.3E-02
etot    7  N  Y  1  U   -5575.23298761318  5.6E+00  6.0E-04  3.0E-02
etot    8  N  Y  1  U   -5575.53833840604  3.1E-01  2.5E-04  1.0E-02
etot    9  N  Y  1  U   -5575.63789191524  1.0E-01  8.9E-05  3.4E-03
etot   10  N  Y  1  U   -5575.64920840686  1.1E-02  5.1E-05  2.4E-03
etot   11  N  Y  1  U   -5575.65479151240  5.6E-03  3.3E-05  1.1E-03
etot   12  N  Y  1  U   -5575.65678779768  2.0E-03  2.1E-05  6.8E-04
etot   13  N  Y  1  U   -5575.65728972550  5.0E-04  6.5E-06  3.4E-04
etot   14  N  N  1  U   -5575.65733947959  5.0E-05  0.0E+00  0.0E+00
scf (DFT) done.
--------gas phase calculation complete----------------------
ch (properties) done.
post (output conversion) done.
pbf (Poisson-Boltzmann solver) done.
solv (solvation checking) done.
  
       i  u  d  i  g
       t  p  i  c  r                                 RMS    maximum
       e  d  i  u  i                       energy  density   DIIS  
       r  t  s  t  d       total energy    change  change    error 
  
etot    1  N  N  1  U   -5575.69310037887           4.9E-05  7.0E-04
etot    2  N  Y  1  U   -5575.69384587709  7.5E-04  1.5E-05  6.8E-04
etot    3  N  Y  1  U   -5575.69403390039  1.9E-04  5.3E-06  4.3E-04
etot    4  N  N  1  U   -5575.69408127241  4.7E-05  0.0E+00  0.0E+00
scf (DFT) done.
sole (solvation energy) done.
----------solvation iteration  1 complete------------------
ch (properties) done.
post (output conversion) done.
pbf (Poisson-Boltzmann solver) done.
solv (solvation checking) done.
  
       i  u  d  i  g
       t  p  i  c  r                                 RMS    maximum
       e  d  i  u  i                       energy  density   DIIS  
       r  t  s  t  d       total energy    change  change    error 
  
etot    1  N  N  1  U   -5575.69649110622           5.9E-06  8.5E-05
etot    2  N  N  1  U   -5575.69649549753  4.4E-06  0.0E+00  0.0E+00
scf (DFT) done.
sole (solvation energy) done.
----------solvation iteration  2 complete------------------
ch (properties) done.
post (output conversion) done.
pbf (Poisson-Boltzmann solver) done.
solv (solvation checking) done.
  
       i  u  d  i  g
       t  p  i  c  r                                 RMS    maximum
       e  d  i  u  i                       energy  density   DIIS  
       r  t  s  t  d       total energy    change  change    error 
  
etot    1  N  N  1  U   -5575.69676597924           5.4E-06  1.4E-04
etot    2  N  N  1  U   -5575.69674618869 -2.0E-05  0.0E+00  0.0E+00
scf (DFT) done.
sole (solvation energy) done.
----final solvation iteration  3 complete------------------
post (output conversion) done.
Job Toru-SiPh3-NTf-Type-II-Z-1-chkp-scan-unrestrained-2-19-3-SPE completed on tethys at Fri Mar 17 07:28:35 2017
Timer (jaguar_backend.py) : 226733.72 secs (2 days, 14 hrs, 58 mins, 53 secs)
Finished:   Fri Mar 17 07:28:36 2017
