[running at reduced cpu priority]
Job Toru-SiPh3-NTf-Type-I-E-1-chkp-scan-unrestrained-fine-uff-acc-sol started on tethys at Fri Nov 11 15:24:30 2016
jobid: tethys-0-5825e2ad 
Jaguar version 8.4, release  16
Molecular Point Group: C1      
Point Group used: C1
pre (input checking) done.
onee (1-electron integrals) done.
hfig (HF initial guess) done.
probe (project orbitals) done.
grid (grid generation) done.
rwr (Q operators) done.
scf type: DFT=M06-2X
  
       i  u  d  i  g
       t  p  i  c  r                                 RMS    maximum
       e  d  i  u  i                       energy  density   DIIS  
       r  t  s  t  d       total energy    change  change    error 
  
etot    1  N  N  1  U   -5562.66882489238           4.2E-03  1.1E-01
etot    2  N  Y  1  U   -5521.87214220017 -4.1E+01  1.6E-02  1.6E-01
etot    3  N  Y  1  U   -5296.02551753532 -2.3E+02  1.5E-02  2.7E-01
etot    4  N  Y  1  U   -5570.97815844319  2.7E+02  2.4E-03  9.0E-02
etot    5  N  Y  1  U   -5573.09356706354  2.1E+00  1.5E-03  4.0E-02
etot    6  N  Y  1  U   -5573.07248862902 -2.1E-02  9.7E-04  4.0E-02
etot    7  N  Y  1  U   -5575.46586743609  2.4E+00  2.2E-04  8.6E-03
etot    8  N  Y  1  U   -5575.54283222152  7.7E-02  7.7E-05  2.7E-03
etot    9  N  Y  1  U   -5575.54871202131  5.9E-03  3.4E-05  1.7E-03
etot   10  N  Y  1  U   -5575.55075059752  2.0E-03  1.4E-05  4.3E-04
etot   11  N  Y  1  U   -5575.55103700370  2.9E-04  8.0E-06  3.2E-04
etot   12  N  Y  1  U   -5575.55115239779  1.2E-04  5.1E-06  1.4E-04
etot   13  N  N  1  U   -5575.55118061459  2.8E-05  0.0E+00  0.0E+00
scf (DFT) done.
--------gas phase calculation complete----------------------
ch (properties) done.
post (output conversion) done.
pbf (Poisson-Boltzmann solver) done.
solv (solvation checking) done.
  
       i  u  d  i  g
       t  p  i  c  r                                 RMS    maximum
       e  d  i  u  i                       energy  density   DIIS  
       r  t  s  t  d       total energy    change  change    error 
  
etot    1  N  N  1  U   -5575.58842691055           5.1E-05  7.7E-04
etot    2  N  Y  1  U   -5575.58921304414  7.9E-04  1.7E-05  6.4E-04
etot    3  N  Y  1  U   -5575.58945267636  2.4E-04  5.6E-06  3.2E-04
etot    4  N  Y  1  U   -5575.58950462578  5.2E-05  2.5E-06  7.3E-05
etot    5  N  N  1  U   -5575.58951154877  6.9E-06  0.0E+00  0.0E+00
scf (DFT) done.
sole (solvation energy) done.
----------solvation iteration  1 complete------------------
ch (properties) done.
post (output conversion) done.
pbf (Poisson-Boltzmann solver) done.
solv (solvation checking) done.
  
       i  u  d  i  g
       t  p  i  c  r                                 RMS    maximum
       e  d  i  u  i                       energy  density   DIIS  
       r  t  s  t  d       total energy    change  change    error 
  
etot    1  N  N  1  U   -5575.59217859391           6.0E-06  9.8E-05
etot    2  N  N  1  U   -5575.59218176200  3.2E-06  0.0E+00  0.0E+00
scf (DFT) done.
sole (solvation energy) done.
----------solvation iteration  2 complete------------------
ch (properties) done.
post (output conversion) done.
pbf (Poisson-Boltzmann solver) done.
solv (solvation checking) done.
  
       i  u  d  i  g
       t  p  i  c  r                                 RMS    maximum
       e  d  i  u  i                       energy  density   DIIS  
       r  t  s  t  d       total energy    change  change    error 
  
etot    1  N  N  1  U   -5575.59251268790           5.5E-06  9.8E-05
etot    2  N  N  1  U   -5575.59249658721 -1.6E-05  0.0E+00  0.0E+00
scf (DFT) done.
sole (solvation energy) done.
----------solvation iteration  3 complete------------------
ch (properties) done.
post (output conversion) done.
pbf (Poisson-Boltzmann solver) done.
solv (solvation checking) done.
  
       i  u  d  i  g
       t  p  i  c  r                                 RMS    maximum
       e  d  i  u  i                       energy  density   DIIS  
       r  t  s  t  d       total energy    change  change    error 
  
etot    1  N  N  1  U   -5575.59239365189           8.8E-06  1.6E-04
etot    2  N  Y  1  U   -5575.59233725224 -5.6E-05  5.8E-06  2.9E-04
etot    3  N  Y  1  U   -5575.59241672905  7.9E-05  2.0E-07  1.0E-05
etot    4  N  N  1  U   -5575.59241679898  7.0E-08  0.0E+00  0.0E+00
scf (DFT) done.
sole (solvation energy) done.
----final solvation iteration  4 complete------------------
post (output conversion) done.
Job Toru-SiPh3-NTf-Type-I-E-1-chkp-scan-unrestrained-fine-uff-acc-sol completed on tethys at Sat Nov 12 07:23:42 2016
