Job Toru-SiPh3-NTf-Type-I-E-1-chkp-scan-unrestrained-fine-uff-acc-sol started on tethys at Fri Nov 11 15:24:30 2016
jobid: tethys-0-5825e2ad

  +--------------------------------------------------------------------+
  |  Jaguar version 8.4, release  16                                   |
  |                                                                    |
  |  Copyright Schrodinger, Inc.                                       |
  |  All Rights Reserved.                                              |
  |                                                                    |
  |  The following have contributed to Jaguar (listed alphabetically): |
  |  Mike Beachy, Art Bochevarov, Dale Braden, Yixiang Cao,            |
  |  Chris Cortis, Rich Friesner, Bill Goddard, Hod Greeley,           |
  |  Tom Hughes, Jean-Marc Langlois, Daniel Mainz, Rob Murphy,         |
  |  Dean Philipp, Tom Pollard, Murco Ringnalda.                       |
  |                                                                    |
  |  Use of this program should be acknowledged in publications as:    |
  |                                                                    |
  |  Jaguar, version 8.4, Schrodinger, Inc., New York, NY, 2013.       |
  |                                                                    |
  |  A. D. Bochevarov, E. Harder, T. F. Hughes, J. R. Greenwood,       |
  |  D. A. Braden, D. M. Philipp, D. Rinaldo, M. D. Halls,             |
  |  J. Zhang, R. A. Friesner, "Jaguar: A High-Performance Quantum     |
  |  Chemistry Software Program with Strengths in Life and Materials   |
  |  Sciences", Int. J. Quantum Chem., 2013, 113(18), 2110-2142.       |
  +--------------------------------------------------------------------+
  
  start of program pre
  
  Job name: Toru-SiPh3-NTf-Type-I-E-1-chkp-scan-unrestrained-fine-uff-acc-sol
  Executables used: /usr/local/shared/schrodinger/current/jaguar-v84016/bin/Linux-x86_64
  Temporary files : /home/ab2144/.schrodinger/tmp/Toru-SiPh3-NTf-Type-I-E-1-chkp-scan-unrestrained-fine-uff-acc-sol
  Maestro file (input):  Toru-SiPh3-NTf-Type-I-E-1-chkp-scan-unrestrained-fine-uff-acc-sol.mae
  Maestro file (output): Toru-SiPh3-NTf-Type-I-E-1-chkp-scan-unrestrained-fine-uff-acc-sol.01.mae
  
  
  basis set:             6-31g**         
  net molecular charge:    0
  multiplicity:            1
  
  keygrid settings 
    wispc.....   7.500E-01
    ldens.....   0
    denspc....   7.500E-01
  
   grid     daf set  nls  grid set  Q type
  ------    -------  ---  --------  ------
  coarse       1      1       1        1
  medium       2      2       2        1
  fine         3      2       3        0
  ultrafine    4      2       4        1
  charge       0      1      -1        1
  gradient     5      2       4        1
  density      0      1       0        0
  DFT-fine     0      1     -13        0
  DFT-med.     0      1     -13        0
  DFT-grad     0      1     -13        0
  DFT-der2     0      1       0        0
  DFT-cphf     0      1       0        0
  LMP2-enrg    4      2       4        1
  LMP2-grad    5      2       2        1
  DFT-cphf2    0      1       0        0
  PBF-dens     0      1       0        0
  plotting     0      1       0        0
  
  idftgrdm  100
  ndftgrdm   50    0    0
  idftgrdf  111
  ndftgrdf   85    0    0
  idftgrdg  111
  ndftgrdg   80    3    0
  idftgrdu  433
  ndftgrdu  105    0    0
  idftgrdd  433
  ndftgrdd  105    0    0
  idftgrdc  433
  ndftgrdc   26    0    0
  idftgrdp  433
  ndftgrdp   18    0    0
  
  number of basis functions....         1680
  
 Input geometry:
                                   angstroms
  atom               x                 y                 z
  C1           -2.1777000000      5.2396000000      0.6808000000 
  C2           -2.7417000000      3.8845000000      0.4222000000 
  C3           -2.9090000000      6.1702000000      1.3047000000 
  C4           -3.9815000000      3.5979000000      0.8758000000 
  C5           -1.9506000000      2.8231000000     -0.2742000000 
  C6           -4.7853000000      4.6377000000      1.5595000000 
  C7           -4.5271000000      2.2376000000      0.7263000000 
  C8           -4.2776000000      5.8586000000      1.7562000000 
  C9           -2.4252000000      1.5618000000     -0.3293000000 
  C10          -0.6095000000      3.1220000000     -0.8319000000 
  C11          -3.8001000000      1.2620000000      0.1609000000 
  O12          -1.6682000000      0.5795000000     -0.9136000000 
  Si13         -4.5467000000     -0.4466000000      0.0939000000 
  C14          -0.4241000000      4.0683000000     -1.7793000000 
  C15           0.5735000000      2.4744000000     -0.1959000000 
  C16           0.9425000000      4.5829000000     -2.0373000000 
  C17          -1.5410000000      4.6685000000     -2.5508000000 
  C18           1.9737000000      4.1471000000     -1.3029000000 
  C19           1.1220000000      5.6344000000     -3.0578000000 
  C20           1.7806000000      3.0754000000     -0.2973000000 
  Si21          3.2504000000      2.5582000000      0.7330000000 
  O22           0.4114000000      1.3635000000      0.6027000000 
  C23          -1.3035000000      5.6244000000     -3.4569000000 
  C24           0.0655000000      6.1192000000     -3.7199000000 
  P25          -0.3969000000      0.0719000000     -0.0204000000 
  O26          -0.8348000000     -0.7153000000      1.1832000000 
  N27           0.5013000000     -0.8356000000     -1.0270000000 
  C28          -4.4279000000     -1.2077000000      1.7949000000 
  C29          -6.3329000000     -0.2135000000     -0.4026000000 
  C30          -3.7359000000     -1.5429000000     -1.1784000000 
  C31           3.9151000000      0.9706000000      0.0326000000 
  C32           4.5577000000      3.8791000000      0.6695000000 
  C33           2.8354000000      2.4306000000      2.5445000000 
  C34          -4.9017000000     -2.4447000000      2.0256000000 
  C35          -3.8268000000     -0.4420000000      2.9158000000 
  C36          -7.3418000000     -0.7577000000      0.3008000000 
  C37          -6.6501000000      0.6453000000     -1.5715000000 
  C38          -3.7909000000     -1.2231000000     -2.4824000000 
  C39          -3.0878000000     -2.8159000000     -0.7748000000 
  C40           3.9264000000     -0.1597000000      0.7539000000 
  C41           4.4732000000      0.9627000000     -1.3409000000 
  C42           4.2445000000      5.1381000000      1.0199000000 
  C43           5.9542000000      3.5557000000      0.2870000000 
  C44           3.7783000000      2.0226000000      3.4114000000 
  C45           1.5161000000      2.8716000000      3.0630000000 
  C46          -4.8392000000     -3.0284000000      3.3812000000 
  C47          -4.3189000000     -2.3227000000      4.3912000000 
  C48          -3.7884000000     -0.9667000000      4.1467000000 
  C49          -8.7436000000     -0.5443000000     -0.1165000000 
  C50          -9.0187000000      0.2099000000     -1.1862000000 
  C51          -7.9208000000      0.8408000000     -1.9438000000 
  C52          -3.2652000000     -2.1532000000     -3.5026000000 
  C53          -2.7188000000     -3.3160000000     -3.1321000000 
  C54          -2.6168000000     -3.6582000000     -1.7011000000 
  C55           4.4971000000     -1.4003000000      0.1902000000 
  C56           5.0274000000     -1.3939000000     -1.0377000000 
  C57           5.0145000000     -0.1548000000     -1.8415000000 
  C58           5.2726000000      6.1986000000      0.9851000000 
  C59           6.5260000000      5.9052000000      0.6203000000 
  C60           6.8843000000      4.5185000000      0.2604000000 
  C61           3.4856000000      1.9595000000      4.8584000000 
  C62           2.2830000000      2.3268000000      5.3152000000 
  C63           1.2534000000      2.8118000000      4.3744000000 
  C64           3.3923000000     -3.4887000000      4.3562000000 
  C65           2.7973000000     -4.0784000000      3.2451000000 
  C66           1.9668000000     -3.3290000000      2.3924000000 
  C67           1.7147000000     -1.9835000000      2.6991000000 
  C68           2.2879000000     -1.4079000000      3.8327000000 
  C69           3.1344000000     -2.1485000000      4.6558000000 
  C70           1.3832000000     -4.0413000000      1.2347000000 
  N71           1.3435000000     -3.5052000000     -0.0285000000 
  S72           1.2724000000     -4.5891000000     -1.3638000000 
  O73           0.9307000000     -5.8948000000     -0.7890000000 
  O74           0.4514000000     -3.9742000000     -2.3960000000 
  C75           2.9876000000     -4.6450000000     -1.9420000000 
  C76           3.2972000000     -4.1353000000     -3.1980000000 
  C77           4.6239000000     -4.2703000000     -3.6103000000 
  C78           5.5386000000     -4.8850000000     -2.7578000000 
  C79           5.1022000000     -5.3334000000     -1.5078000000 
  N80           3.8352000000     -5.2199000000     -1.0972000000 
  N81          -1.0286000000     -3.1588000000      2.2128000000 
  C82          -1.0927000000     -3.1796000000      3.5429000000 
  C83          -0.8173000000     -4.4840000000      4.0159000000 
  C84          -0.5402000000     -5.2535000000      2.9029000000 
  C85          -0.5674000000     -4.4007000000      1.7531000000 
  H86          -1.1666000000      5.4864000000      0.3878000000 
  H87          -2.4931000000      7.1520000000      1.4914000000 
  H88          -5.7866000000      4.4119000000      1.9050000000 
  H89          -5.5188000000      2.0314000000      1.1119000000 
  H90          -4.8648000000      6.6172000000      2.2574000000 
  H91          -2.5589000000      4.3286000000     -2.4070000000 
  H92           2.9630000000      4.5510000000     -1.4765000000 
  H93           2.1096000000      6.0256000000     -3.2718000000 
  H94          -2.1294000000      6.0450000000     -4.0162000000 
  H95           0.2108000000      6.8923000000     -4.4634000000 
  H96          -5.3436000000     -3.0266000000      1.2262000000 
  H97          -3.4162000000      0.5449000000      2.7537000000 
  H98          -7.1597000000     -1.3552000000      1.1798000000 
  H99          -5.8600000000      1.1475000000     -2.1127000000 
  H100         -4.2361000000     -0.2968000000     -2.8120000000 
  H101         -2.9912000000     -3.0806000000      0.2660000000 
  H102          3.5384000000     -0.1752000000      1.7574000000 
  H103          4.4572000000      1.8652000000     -1.9392000000 
  H104          3.2365000000      5.3946000000      1.3225000000 
  H105          6.2399000000      2.5417000000      0.0453000000 
  H106          4.7625000000      1.7331000000      3.0641000000 
  H107          0.7647000000      3.2707000000      2.3969000000 
  H108         -5.2216000000     -4.0257000000      3.5556000000 
  H109         -4.2740000000     -2.7477000000      5.3855000000 
  H110         -3.3524000000     -0.4053000000      4.9628000000 
  H111         -9.5475000000     -1.0003000000      0.4469000000 
  H112        -10.0449000000      0.3678000000     -1.4917000000 
  H113         -8.1472000000      1.4743000000     -2.7917000000 
  H114         -3.3288000000     -1.8929000000     -4.5512000000 
  H115         -2.3354000000     -3.9998000000     -3.8783000000 
  H116         -2.1560000000     -4.5910000000     -1.4037000000 
  H117          4.4970000000     -2.3093000000      0.7780000000 
  H118          5.4602000000     -2.2956000000     -1.4470000000 
  H119          5.4290000000     -0.1576000000     -2.8411000000 
  H120          5.0084000000      7.2129000000      1.2549000000 
  H121          7.2806000000      6.6806000000      0.5949000000 
  H122          7.9037000000      4.2813000000     -0.0152000000 
  H123          4.2444000000      1.6093000000      5.5459000000 
  H124          2.0653000000      2.2780000000      6.3742000000 
  H125          0.2919000000      3.1364000000      4.7508000000 
  H126          4.0509000000     -4.0749000000      4.9898000000 
  H127          2.9913000000     -5.1235000000      3.0199000000 
  H128          1.0615000000     -1.3844000000      2.0750000000 
  H129          2.0666000000     -0.3715000000      4.0600000000 
  H130          3.5872000000     -1.6873000000      5.5285000000 
  H131          1.6490000000     -5.0920000000      1.1951000000 
  H132          2.5438000000     -3.6368000000     -3.7928000000 
  H133          4.9345000000     -3.8911000000     -4.5784000000 
  H134          6.5781000000     -5.0059000000     -3.0442000000 
  H135          5.7940000000     -5.8001000000     -0.8109000000 
  H136         -1.0645000000     -2.2703000000      1.6605000000 
  H137         -1.2922000000     -2.2774000000      4.1027000000 
  H138         -0.8148000000     -4.7883000000      5.0524000000 
  H139         -0.2901000000     -6.3055000000      2.8761000000 
  H140         -0.8447000000     -4.7348000000      0.7631000000 
  S141          1.2586000000     -0.3841000000     -2.3729000000 
  O142          2.3079000000     -1.3730000000     -2.6538000000 
  C143          0.0722000000     -0.5902000000     -3.8081000000 
  O144          1.5788000000      1.0493000000     -2.4503000000 
  F145         -0.2250000000     -1.8706000000     -4.0236000000 
  F146         -1.0549000000      0.1003000000     -3.6096000000 
  F147          0.6791000000     -0.1076000000     -4.9033000000 
  H148          1.1353000000     -2.5118000000     -0.2688000000 
   
  principal moments of inertia:
        amu*angstrom^2:    21525.34097    24258.42987    30598.09387
                g*cm^2: 3.57436652E-36 4.02820655E-36 5.08093239E-36
   
  rotational constants:
               cm^(-1):      0.00078315      0.00069492      0.00055094
                   GHz:      0.02347833      0.02083313      0.01651668
   
  Molecular weight:    1308.28 amu
   
  Stoichiometry: Si2C73PN4H56S2O7F3
  Molecular Point Group: C1      
  Point Group used: C1
  
  nuclear repulsion energy.......   20928.586967531 hartrees
 
 Non-default options chosen:
   SCF calculation type: DFT(m06-2x)                 
   DFT=M06-2X
   Solvation energy will be computed using PBF
     -solute cavity energy will not be included
     -surface area terms will not be included
   Highest accuracy cutoffs used in SCF
   Solvent: other                                                           
   Internal dielectric constant:    1.000
   Continuum dielectric constant:   2.380
   Solvent probe molecule radius:   2.760
  
 Temporary integer options set:
     73=  2
  
  atom       vdw   vdw2    cov     mass  grid  daf  charge   basis
  C1        1.949  1.900  0.770   12.000    Y    Y      Y    6-31g**
  C2        1.949  1.900  0.770   12.000    Y    Y      Y    6-31g**
  C3        1.949  1.900  0.770   12.000    Y    Y      Y    6-31g**
  C4        1.949  1.900  0.770   12.000    Y    Y      Y    6-31g**
  C5        1.949  1.900  0.770   12.000    Y    Y      Y    6-31g**
  C6        1.949  1.900  0.770   12.000    Y    Y      Y    6-31g**
  C7        1.949  1.900  0.770   12.000    Y    Y      Y    6-31g**
  C8        1.949  1.900  0.770   12.000    Y    Y      Y    6-31g**
  C9        1.949  1.900  0.770   12.000    Y    Y      Y    6-31g**
  C10       1.949  1.900  0.770   12.000    Y    Y      Y    6-31g**
  C11       1.949  1.900  0.770   12.000    Y    Y      Y    6-31g**
  O12       1.702  1.600  0.730   15.995    Y    Y      Y    6-31g**
  Si13      2.217  2.147  1.110   27.977    Y    Y      Y    6-31g**
  C14       1.949  1.900  0.770   12.000    Y    Y      Y    6-31g**
  C15       1.949  1.900  0.770   12.000    Y    Y      Y    6-31g**
  C16       1.949  1.900  0.770   12.000    Y    Y      Y    6-31g**
  C17       1.949  1.900  0.770   12.000    Y    Y      Y    6-31g**
  C18       1.949  1.900  0.770   12.000    Y    Y      Y    6-31g**
  C19       1.949  1.900  0.770   12.000    Y    Y      Y    6-31g**
  C20       1.949  1.900  0.770   12.000    Y    Y      Y    6-31g**
  Si21      2.217  2.147  1.110   27.977    Y    Y      Y    6-31g**
  O22       1.702  1.600  0.730   15.995    Y    Y      Y    6-31g**
  C23       1.949  1.900  0.770   12.000    Y    Y      Y    6-31g**
  C24       1.949  1.900  0.770   12.000    Y    Y      Y    6-31g**
  P25       2.147  2.074  1.060   30.974    Y    Y      Y    6-31g**
  O26       1.702  1.600  0.730   15.995    Y    Y      Y    6-31g**
  N27       1.831  1.600  0.750   14.003    Y    Y      Y    6-31g**
  C28       1.949  1.900  0.770   12.000    Y    Y      Y    6-31g**
  C29       1.949  1.900  0.770   12.000    Y    Y      Y    6-31g**
  C30       1.949  1.900  0.770   12.000    Y    Y      Y    6-31g**
  C31       1.949  1.900  0.770   12.000    Y    Y      Y    6-31g**
  C32       1.949  1.900  0.770   12.000    Y    Y      Y    6-31g**
  C33       1.949  1.900  0.770   12.000    Y    Y      Y    6-31g**
  C34       1.949  1.900  0.770   12.000    Y    Y      Y    6-31g**
  C35       1.949  1.900  0.770   12.000    Y    Y      Y    6-31g**
  C36       1.949  1.900  0.770   12.000    Y    Y      Y    6-31g**
  C37       1.949  1.900  0.770   12.000    Y    Y      Y    6-31g**
  C38       1.949  1.900  0.770   12.000    Y    Y      Y    6-31g**
  C39       1.949  1.900  0.770   12.000    Y    Y      Y    6-31g**
  C40       1.949  1.900  0.770   12.000    Y    Y      Y    6-31g**
  C41       1.949  1.900  0.770   12.000    Y    Y      Y    6-31g**
  C42       1.949  1.900  0.770   12.000    Y    Y      Y    6-31g**
  C43       1.949  1.900  0.770   12.000    Y    Y      Y    6-31g**
  C44       1.949  1.900  0.770   12.000    Y    Y      Y    6-31g**
  C45       1.949  1.900  0.770   12.000    Y    Y      Y    6-31g**
  C46       1.949  1.900  0.770   12.000    Y    Y      Y    6-31g**
  C47       1.949  1.900  0.770   12.000    Y    Y      Y    6-31g**
  C48       1.949  1.900  0.770   12.000    Y    Y      Y    6-31g**
  C49       1.949  1.900  0.770   12.000    Y    Y      Y    6-31g**
  C50       1.949  1.900  0.770   12.000    Y    Y      Y    6-31g**
  C51       1.949  1.900  0.770   12.000    Y    Y      Y    6-31g**
  C52       1.949  1.900  0.770   12.000    Y    Y      Y    6-31g**
  C53       1.949  1.900  0.770   12.000    Y    Y      Y    6-31g**
  C54       1.949  1.900  0.770   12.000    Y    Y      Y    6-31g**
  C55       1.949  1.900  0.770   12.000    Y    Y      Y    6-31g**
  C56       1.949  1.900  0.770   12.000    Y    Y      Y    6-31g**
  C57       1.949  1.900  0.770   12.000    Y    Y      Y    6-31g**
  C58       1.949  1.900  0.770   12.000    Y    Y      Y    6-31g**
  C59       1.949  1.900  0.770   12.000    Y    Y      Y    6-31g**
  C60       1.949  1.900  0.770   12.000    Y    Y      Y    6-31g**
  C61       1.949  1.900  0.770   12.000    Y    Y      Y    6-31g**
  C62       1.949  1.900  0.770   12.000    Y    Y      Y    6-31g**
  C63       1.949  1.900  0.770   12.000    Y    Y      Y    6-31g**
  C64       1.949  1.900  0.770   12.000    Y    Y      Y    6-31g**
  C65       1.949  1.900  0.770   12.000    Y    Y      Y    6-31g**
  C66       1.949  1.900  0.770   12.000    Y    Y      Y    6-31g**
  C67       1.949  1.900  0.770   12.000    Y    Y      Y    6-31g**
  C68       1.949  1.900  0.770   12.000    Y    Y      Y    6-31g**
  C69       1.949  1.900  0.770   12.000    Y    Y      Y    6-31g**
  C70       1.949  1.900  0.770   12.000    Y    Y      Y    6-31g**
  N71       1.831  1.600  0.750   14.003    Y    Y      Y    6-31g**
  S72       2.070  1.900  1.020   31.972    Y    Y      Y    6-31g**
  O73       1.702  1.600  0.730   15.995    Y    Y      Y    6-31g**
  O74       1.702  1.600  0.730   15.995    Y    Y      Y    6-31g**
  C75       1.949  1.900  0.770   12.000    Y    Y      Y    6-31g**
  C76       1.949  1.900  0.770   12.000    Y    Y      Y    6-31g**
  C77       1.949  1.900  0.770   12.000    Y    Y      Y    6-31g**
  C78       1.949  1.900  0.770   12.000    Y    Y      Y    6-31g**
  C79       1.949  1.900  0.770   12.000    Y    Y      Y    6-31g**
  N80       1.831  1.600  0.750   14.003    Y    Y      Y    6-31g**
  N81       1.831  1.600  0.750   14.003    Y    Y      Y    6-31g**
  C82       1.949  1.900  0.770   12.000    Y    Y      Y    6-31g**
  C83       1.949  1.900  0.770   12.000    Y    Y      Y    6-31g**
  C84       1.949  1.900  0.770   12.000    Y    Y      Y    6-31g**
  C85       1.949  1.900  0.770   12.000    Y    Y      Y    6-31g**
  H86       1.597  1.150  0.320    1.008    Y    Y      Y    6-31g**
  H87       1.597  1.150  0.320    1.008    Y    Y      Y    6-31g**
  H88       1.597  1.150  0.320    1.008    Y    Y      Y    6-31g**
  H89       1.597  1.150  0.320    1.008    Y    Y      Y    6-31g**
  H90       1.597  1.150  0.320    1.008    Y    Y      Y    6-31g**
  H91       1.597  1.150  0.320    1.008    Y    Y      Y    6-31g**
  H92       1.597  1.150  0.320    1.008    Y    Y      Y    6-31g**
  H93       1.597  1.150  0.320    1.008    Y    Y      Y    6-31g**
  H94       1.597  1.150  0.320    1.008    Y    Y      Y    6-31g**
  H95       1.597  1.150  0.320    1.008    Y    Y      Y    6-31g**
  H96       1.597  1.150  0.320    1.008    Y    Y      Y    6-31g**
  H97       1.597  1.150  0.320    1.008    Y    Y      Y    6-31g**
  H98       1.597  1.150  0.320    1.008    Y    Y      Y    6-31g**
  H99       1.597  1.150  0.320    1.008    Y    Y      Y    6-31g**
  H100      1.597  1.150  0.320    1.008    Y    Y      Y    6-31g**
  H101      1.597  1.150  0.320    1.008    Y    Y      Y    6-31g**
  H102      1.597  1.150  0.320    1.008    Y    Y      Y    6-31g**
  H103      1.597  1.150  0.320    1.008    Y    Y      Y    6-31g**
  H104      1.597  1.150  0.320    1.008    Y    Y      Y    6-31g**
  H105      1.597  1.150  0.320    1.008    Y    Y      Y    6-31g**
  H106      1.597  1.150  0.320    1.008    Y    Y      Y    6-31g**
  H107      1.597  1.150  0.320    1.008    Y    Y      Y    6-31g**
  H108      1.597  1.150  0.320    1.008    Y    Y      Y    6-31g**
  H109      1.597  1.150  0.320    1.008    Y    Y      Y    6-31g**
  H110      1.597  1.150  0.320    1.008    Y    Y      Y    6-31g**
  H111      1.597  1.150  0.320    1.008    Y    Y      Y    6-31g**
  H112      1.597  1.150  0.320    1.008    Y    Y      Y    6-31g**
  H113      1.597  1.150  0.320    1.008    Y    Y      Y    6-31g**
  H114      1.597  1.150  0.320    1.008    Y    Y      Y    6-31g**
  H115      1.597  1.150  0.320    1.008    Y    Y      Y    6-31g**
  H116      1.597  1.150  0.320    1.008    Y    Y      Y    6-31g**
  H117      1.597  1.150  0.320    1.008    Y    Y      Y    6-31g**
  H118      1.597  1.150  0.320    1.008    Y    Y      Y    6-31g**
  H119      1.597  1.150  0.320    1.008    Y    Y      Y    6-31g**
  H120      1.597  1.150  0.320    1.008    Y    Y      Y    6-31g**
  H121      1.597  1.150  0.320    1.008    Y    Y      Y    6-31g**
  H122      1.597  1.150  0.320    1.008    Y    Y      Y    6-31g**
  H123      1.597  1.150  0.320    1.008    Y    Y      Y    6-31g**
  H124      1.597  1.150  0.320    1.008    Y    Y      Y    6-31g**
  H125      1.597  1.150  0.320    1.008    Y    Y      Y    6-31g**
  H126      1.597  1.150  0.320    1.008    Y    Y      Y    6-31g**
  H127      1.597  1.150  0.320    1.008    Y    Y      Y    6-31g**
  H128      1.597  1.150  0.320    1.008    Y    Y      Y    6-31g**
  H129      1.597  1.150  0.320    1.008    Y    Y      Y    6-31g**
  H130      1.597  1.150  0.320    1.008    Y    Y      Y    6-31g**
  H131      1.597  1.150  0.320    1.008    Y    Y      Y    6-31g**
  H132      1.597  1.150  0.320    1.008    Y    Y      Y    6-31g**
  H133      1.597  1.150  0.320    1.008    Y    Y      Y    6-31g**
  H134      1.597  1.150  0.320    1.008    Y    Y      Y    6-31g**
  H135      1.597  1.150  0.320    1.008    Y    Y      Y    6-31g**
  H136      1.597  1.150  0.320    1.008    Y    Y      Y    6-31g**
  H137      1.597  1.150  0.320    1.008    Y    Y      Y    6-31g**
  H138      1.597  1.150  0.320    1.008    Y    Y      Y    6-31g**
  H139      1.597  1.150  0.320    1.008    Y    Y      Y    6-31g**
  H140      1.597  1.150  0.320    1.008    Y    Y      Y    6-31g**
  S141      2.070  1.900  1.020   31.972    Y    Y      Y    6-31g**
  O142      1.702  1.600  0.730   15.995    Y    Y      Y    6-31g**
  C143      1.949  1.900  0.770   12.000    Y    Y      Y    6-31g**
  O144      1.702  1.600  0.730   15.995    Y    Y      Y    6-31g**
  F145      1.736  1.682  0.720   18.998    Y    Y      Y    6-31g**
  F146      1.736  1.682  0.720   18.998    Y    Y      Y    6-31g**
  F147      1.736  1.682  0.720   18.998    Y    Y      Y    6-31g**
  H148      1.597  1.150  0.320    1.008    Y    Y      Y    6-31g**
  
  Peak memory usage:    528 Mb
  
  end of program pre
   
 Time(pre)  user:        0.0  user+sys:        0.0  wallclock:        0.5
  
  start of program onee
  
  smallest eigenvalue of S:    2.333E-04
  number of canonical orbitals.....         1674
  Peak memory usage:    707 Mb
  
  end of program onee
   
 Time(onee)  user:       29.0  user+sys:       30.0  wallclock:       32.2
  
  start of program hfig
  
  initial wavefunction generated automatically from atomic wavefunctions
 
  Irreducible     Total no   No of occupied orbitals 
  representation  orbitals   Shell_1  Shell_2    ...
  No Symm         1674        340
  ------------------------
  Orbital occupation/shell    1.000
 
  Peak memory usage:    646 Mb
  
  end of program hfig
   
 Time(hfig)  user:       42.0  user+sys:       42.0  wallclock:       50.1
  
  start of program probe
  
  Peak memory usage:    640 Mb
  
  end of program probe
   
 Time(probe)  user:       33.0  user+sys:       33.0  wallclock:       35.7
  
  start of program grid
  
  
   grid     grid set  grid #  grid sym
  ------    --------  ------  --------
  coarse        0        0        1
  medium        2        1        1
  fine          0        0        1
  ultrafine     4        2        1
  charge       -1        3        1
  gradient      4        2        1
  density       0        0        1
  DFT-fine    -13        4        1
  DFT-med.    -13        4        1
  DFT-grad    -13        4        1
  DFT-der2      0        0        1
  DFT-cphf      0        0        1
  LMP2-enrg     4        2        1
  LMP2-grad     2        1        1
  DFT-cphf2     0        0        1
  PBF-dens      0        0        1
  plotting      0        0        1
  
   
  number of gridpoints: 
     atom        C1       C2       C3       C4       C5       C6       C7
  grid # 1       96      101       94      101      100       96       92
  grid # 2      338      359      336      366      356      335      333
  grid # 3       27       24       39       41       13       46       15
  grid # 4    48124    48124    48124    48124    48124    48124    48124
   
  number of gridpoints: 
     atom        C8       C9      C10      C11      O12     Si13      C14
  grid # 1       94       97      100      100      111      474      101
  grid # 2      335      360      358      357      430      474      358
  grid # 3       47       21       12       10       30        7       24
  grid # 4    48124    48124    48124    48124    47716    38542    48124
   
  number of gridpoints: 
     atom       C15      C16      C17      C18      C19      C20     Si21
  grid # 1       97      101       96       94       97      101      474
  grid # 2      352      365      336      331      338      359      474
  grid # 3        6       33       28       17       41        9        7
  grid # 4    48124    48124    48124    48124    48124    48124    38542
   
  number of gridpoints: 
     atom       O22      C23      C24      P25      O26      N27      C28
  grid # 1      113       94       94      447      117      111      101
  grid # 2      438      339      338      447      442      402      357
  grid # 3       44       40       45        6       50       23       12
  grid # 4    47716    48124    48124    38640    47716    47928    48124
   
  number of gridpoints: 
     atom       C29      C30      C31      C32      C33      C34      C35
  grid # 1      101      101      101      100      101       92       97
  grid # 2      360      360      356      359      360      333      337
  grid # 3       20       18        8       11       12       10       24
  grid # 4    48124    48124    48124    48124    48124    48124    48124
   
  number of gridpoints: 
     atom       C36      C37      C38      C39      C40      C41      C42
  grid # 1       93       95       93       96       92       93       92
  grid # 2      338      335      334      335      334      328      335
  grid # 3       35       29       25       23       17        7       22
  grid # 4    48124    48124    48124    48124    48124    48124    48124
   
  number of gridpoints: 
     atom       C43      C44      C45      C46      C47      C48      C49
  grid # 1       96       92       96       93       93       94       94
  grid # 2      340      334      336      333      331      331      336
  grid # 3       30       19       24       25       29       30       45
  grid # 4    48124    48124    48124    48124    48124    48124    48124
   
  number of gridpoints: 
     atom       C50      C51      C52      C53      C54      C55      C56
  grid # 1       94       95       93       94       93       94       93
  grid # 2      336      336      332      333      332      334      331
  grid # 3       47       43       28       30       33       27       24
  grid # 4    48124    48124    48124    48124    48124    48124    48124
   
  number of gridpoints: 
     atom       C57      C58      C59      C60      C61      C62      C63
  grid # 1       93       93       94       94       93       93       94
  grid # 2      331      335      336      336      331      332      334
  grid # 3       18       39       45       44       27       27       30
  grid # 4    48124    48124    48124    48124    48124    48124    48124
   
  number of gridpoints: 
     atom       C64      C65      C66      C67      C68      C69      C70
  grid # 1       95       95       98       95       95       95       91
  grid # 2      331      333      355      326      331      331      321
  grid # 3       30       16        8        9       16       33        6
  grid # 4    48124    48124    48124    48124    48124    48124    48124
   
  number of gridpoints: 
     atom       N71      S72      O73      O74      C75      C76      C77
  grid # 1       98      441      120      119       98       96       96
  grid # 2      355      441      487      469      359      328      329
  grid # 3       10       12      224       77       29       33       29
  grid # 4    47928    48492    47716    47716    48124    48124    48124
   
  number of gridpoints: 
     atom       C78      C79      N80      N81      C82      C83      C84
  grid # 1       96       96      112       96       94       93       94
  grid # 2      328      337      417      347      329      330      331
  grid # 3       30       29       87       15       14       21       21
  grid # 4    48124    48124    47928    47928    48124    48124    48124
   
  number of gridpoints: 
     atom       C85      H86      H87      H88      H89      H90      H91
  grid # 1       92      111      118      118      112      118      113
  grid # 2      324      431      451      446      428      453      435
  grid # 3        7      212      415      360      203      425      253
  grid # 4    48124    48426    48426    48426    48426    48426    48426
   
  number of gridpoints: 
     atom       H92      H93      H94      H95      H96      H97      H98
  grid # 1      110      117      118      118      112      111      111
  grid # 2      425      443      449      451      426      427      430
  grid # 3      172      362      411      418      216      196      224
  grid # 4    48426    48426    48426    48426    48426    48426    48426
   
  number of gridpoints: 
     atom       H99     H100     H101     H102     H103     H104     H105
  grid # 1      110      110      107      106      111      112      111
  grid # 2      425      426      413      416      430      438      433
  grid # 3      200      184       93       86      214      258      222
  grid # 4    48426    48426    48426    48426    48426    48426    48426
   
  number of gridpoints: 
     atom      H106     H107     H108     H109     H110     H111     H112
  grid # 1      113      111      117      117      117      118      118
  grid # 2      436      421      452      450      448      452      453
  grid # 3      244      174      391      372      353      417      425
  grid # 4    48426    48426    48426    48426    48426    48426    48426
   
  number of gridpoints: 
     atom      H113     H114     H115     H116     H117     H118     H119
  grid # 1      118      117      115      110      114      112      117
  grid # 2      453      445      444      430      436      431      450
  grid # 3      422      354      343      223      243      215      364
  grid # 4    48426    48426    48426    48426    48426    48426    48426
   
  number of gridpoints: 
     atom      H120     H121     H122     H123     H124     H125     H126
  grid # 1      118      118      118      117      117      118      118
  grid # 2      452      453      453      447      452      450      449
  grid # 3      414      425      423      353      405      376      413
  grid # 4    48426    48426    48426    48426    48426    48426    48426
   
  number of gridpoints: 
     atom      H127     H128     H129     H130     H131     H132     H133
  grid # 1      111      104      109      117      104      110      117
  grid # 2      439      407      424      444      412      431      453
  grid # 3      287       69      155      347      108      218      404
  grid # 4    48426    48426    48426    48426    48426    48426    48426
   
  number of gridpoints: 
     atom      H134     H135     H136     H137     H138     H139     H140
  grid # 1      117      117      101      111      117      116      107
  grid # 2      451      453      396      433      458      455      418
  grid # 3      407      421       47      208      421      392      114
  grid # 4    48426    48426    48426    48426    48426    48426    48426
   
  number of gridpoints: 
     atom      S141     O142     C143     O144     F145     F146     F147
  grid # 1      434      117       89      118      513      519      537
  grid # 2      434      472      317      478      513      519      537
  grid # 3       10       68        7       95       98      124      304
  grid # 4    48492    47716    48124    47716    47062    47062    47062
   
  number of gridpoints: 
     atom      H148    total
  grid # 1      103    18394
  grid # 2      404    57847
  grid # 3       67    19242
  grid # 4    48426  7104526
   
  Peak memory usage:    671 Mb
  
  end of program grid
   
 Time(grid)  user:     1050.0  user+sys:     1054.0  wallclock:     1122.5
  
  start of program rwr
  
  Peak memory usage:    661 Mb
  
  end of program rwr
   
 Time(rwr)  user:       69.0  user+sys:       75.0  wallclock:       79.1
  
  start of program scf
  
 number of electrons..........        680
 number of alpha electrons....        340
 number of beta electrons.....        340
 number of orbitals, total....       1674
 number of doubly-occ'd orbs..        340
 number of open shell orbs....          0
 number of occupied orbitals..        340
 number of virtual orbitals...       1334
 number of hamiltonians.......          1
 number of shells.............          1
 SCF type: DFT=M06-2X
  
       i  u  d  i  g                   
       t  p  i  c  r                                 RMS    maximum
       e  d  i  u  i                       energy  density   DIIS  
       r  t  s  t  d       total energy    change  change    error 
  
etot    1  N  N  1  U   -5562.66882489238           4.2E-03  1.1E-01
etot    2  N  Y  1  U   -5521.87214220017 -4.1E+01  1.6E-02  1.6E-01
etot    3  N  Y  1  U   -5296.02551753532 -2.3E+02  1.5E-02  2.7E-01
etot    4  N  Y  1  U   -5570.97815844319  2.7E+02  2.4E-03  9.0E-02
etot    5  N  Y  1  U   -5573.09356706354  2.1E+00  1.5E-03  4.0E-02
etot    6  N  Y  1  U   -5573.07248862902 -2.1E-02  9.7E-04  4.0E-02
etot    7  N  Y  1  U   -5575.46586743609  2.4E+00  2.2E-04  8.6E-03
etot    8  N  Y  1  U   -5575.54283222152  7.7E-02  7.7E-05  2.7E-03
etot    9  N  Y  1  U   -5575.54871202131  5.9E-03  3.4E-05  1.7E-03
etot   10  N  Y  1  U   -5575.55075059752  2.0E-03  1.4E-05  4.3E-04
etot   11  N  Y  1  U   -5575.55103700370  2.9E-04  8.0E-06  3.2E-04
etot   12  N  Y  1  U   -5575.55115239779  1.2E-04  5.1E-06  1.4E-04
etot   13  N  N  1  U   -5575.55118061459  2.8E-05  0.0E+00  0.0E+00
  
  
 Energy components, in hartrees:
   (A)  Nuclear repulsion............   20928.58696753111
   (E)  Total one-electron terms.....  -49386.73769190877
   (F)    Electron-nuclear...........  -54922.81511137691
   (H)    Kinetic....................    5536.07741946812
   (I)  Total two-electron terms.....   22882.59954376307
   (J)    Coulomb....................   23533.86609551973
   (K)    Exchange+Correlation.......    -651.26655175666
   (L)  Electronic energy............  -26504.13814814570  (E+I)
   (M)  -V/T.........................       2.00713027621  (-(A+F+I)/H)
   (N)  Total energy.................   -5575.55118061459  (A+L)
  
 SCFE: SCF energy: DFT(m06-2x)     -5575.55118061459 hartrees   iterations:  13
  
 
 HOMO energy:    -0.24377
 LUMO energy:    -0.06594
 
  Orbital energies (hartrees): 
   -90.16964   -90.13495   -78.20871   -67.00767   -67.00056   -25.27071
   -25.26965   -25.26838   -19.69073   -19.68512   -19.65178   -19.65054
   -19.60717   -19.60701   -19.60663   -14.82609   -14.81660   -14.79210
   -14.73798   -10.78598   -10.66209   -10.63053   -10.62125   -10.61839
   -10.61779   -10.61023   -10.60643   -10.59028   -10.58439   -10.58397
   -10.58379   -10.58313   -10.57383   -10.57207   -10.57011   -10.56805
   -10.56691   -10.56502   -10.56462   -10.56112   -10.56033   -10.55988
   -10.55929   -10.55802   -10.55685   -10.55679   -10.55439   -10.55277
   -10.55267   -10.55176   -10.55101   -10.55094   -10.55068   -10.54993
   -10.54985   -10.54866   -10.54771   -10.54727   -10.54700   -10.54679
   -10.54670   -10.54569   -10.54541   -10.54479   -10.54477   -10.54471
   -10.54460   -10.54443   -10.54377   -10.54365   -10.54229   -10.54158
   -10.54148   -10.53987   -10.53961   -10.53779   -10.53718   -10.53416
   -10.53315   -10.53311   -10.53259   -10.53238   -10.53142   -10.53126
   -10.53056   -10.53012   -10.53000   -10.52997   -10.52936   -10.52483
   -10.52183   -10.51729    -8.48014    -8.44366    -6.98791    -6.40243
    -6.40147    -6.40042    -6.36555    -6.36512    -6.36492    -5.53874
    -5.53196    -5.10616    -5.10564    -5.10378    -3.84861    -3.84823
    -3.84795    -3.84170    -3.84156    -3.84116    -1.43740    -1.34696
    -1.34442    -1.24555    -1.22363    -1.19965    -1.18198    -1.13377
    -1.11727    -1.08905    -1.08691    -1.08347    -1.06104    -0.98040
    -0.97412    -0.96844    -0.96055    -0.94895    -0.94195    -0.94022
    -0.93629    -0.92782    -0.92559    -0.92492    -0.91815    -0.90425
    -0.90356    -0.89679    -0.88373    -0.88066    -0.85482    -0.84826
    -0.84715    -0.84384    -0.84005    -0.83946    -0.83355    -0.83324
    -0.83035    -0.82870    -0.82761    -0.82508    -0.82287    -0.82183
    -0.82020    -0.81601    -0.81529    -0.81298    -0.80815    -0.80102
    -0.79375    -0.76227    -0.75022    -0.73892    -0.71707    -0.71211
    -0.70289    -0.69966    -0.69659    -0.69596    -0.69284    -0.68776
    -0.68511    -0.68154    -0.67559    -0.67556    -0.67400    -0.67203
    -0.67047    -0.66946    -0.66594    -0.66532    -0.66289    -0.66051
    -0.65927    -0.65851    -0.65534    -0.65420    -0.65128    -0.64855
    -0.64260    -0.64243    -0.63307    -0.62147    -0.61876    -0.60681
    -0.60604    -0.59970    -0.59491    -0.58213    -0.58007    -0.57818
    -0.57703    -0.57275    -0.57180    -0.57051    -0.56847    -0.56693
    -0.56523    -0.55793    -0.55501    -0.54664    -0.54449    -0.54180
    -0.53996    -0.53783    -0.53743    -0.53603    -0.53228    -0.53211
    -0.53112    -0.52366    -0.51941    -0.51838    -0.51787    -0.51519
    -0.51282    -0.51004    -0.50886    -0.50760    -0.50741    -0.50683
    -0.50371    -0.50177    -0.49999    -0.49993    -0.49869    -0.49842
    -0.49724    -0.49489    -0.49316    -0.49230    -0.49210    -0.49107
    -0.49011    -0.48718    -0.48611    -0.48544    -0.48356    -0.48189
    -0.48135    -0.48033    -0.47980    -0.47920    -0.47918    -0.47797
    -0.47532    -0.46983    -0.46849    -0.46569    -0.46202    -0.46108
    -0.46065    -0.45044    -0.44781    -0.44721    -0.44510    -0.44458
    -0.44286    -0.43971    -0.43827    -0.42954    -0.42824    -0.42663
    -0.42520    -0.42332    -0.42186    -0.41855    -0.41757    -0.41617
    -0.41544    -0.41034    -0.40933    -0.40628    -0.40354    -0.39922
    -0.39841    -0.39779    -0.39660    -0.39348    -0.39265    -0.39051
    -0.38963    -0.38854    -0.38488    -0.38422    -0.38311    -0.37739
    -0.37679    -0.37487    -0.37143    -0.36761    -0.36711    -0.36263
    -0.35703    -0.34962    -0.34827    -0.34694    -0.34334    -0.34331
    -0.34027    -0.33762    -0.33720    -0.33529    -0.33426    -0.33035
    -0.32743    -0.32409    -0.31918    -0.31775    -0.31399    -0.30516
    -0.30351    -0.30287    -0.29855    -0.29776    -0.29658    -0.29435
    -0.29210    -0.28722    -0.28395    -0.28334    -0.28204    -0.27745
    -0.27676    -0.27315    -0.26532    -0.24377    -0.06594    -0.01937
    -0.01226    -0.00015     0.00056     0.01406     0.01538     0.01680
     0.01866     0.02221
 
  Peak memory usage:    862 Mb
  
  end of program scf
   
 Time(scf)  user:    33730.0  user+sys:    33862.0  wallclock:    35245.7
  
  start of program ch
  
  gridpoints used for charge fit        16666
    out of a possible maximum of        19242
  
   Electrostatic potential fitting constrained to reproduce
     total charge:                yes
     dipole moment:               no 
     traceless quadrupole moment: no 
     traceless octapole moment:   no 
  
  Atomic charges from electrostatic potential: 
   
 Atom       C1           C2           C3           C4           C5      
 Charge   -0.00769     -0.14025     -0.22611      0.29869      0.17267
   
 Atom       C6           C7           C8           C9           C10     
 Charge   -0.26663     -0.46659     -0.07707     -0.05020     -0.37886
   
 Atom       C11          O12          Si13         C14          C15     
 Charge    0.22058     -0.14692     -0.10883      0.12949      0.36157
   
 Atom       C16          C17          C18          C19          C20     
 Charge    0.28883     -0.13904     -0.44462     -0.28424      0.19051
   
 Atom       Si21         O22          C23          C24          P25     
 Charge   -0.53855     -0.34197     -0.18720     -0.08370      0.94587
   
 Atom       O26          N27          C28          C29          C30     
 Charge   -0.66440     -0.58754      0.04701      0.01173      0.08649
   
 Atom       C31          C32          C33          C34          C35     
 Charge    0.49593      0.18932      0.23542      0.01514     -0.09645
   
 Atom       C36          C37          C38          C39          C40     
 Charge   -0.05685     -0.12073     -0.18850     -0.03228     -0.31466
   
 Atom       C41          C42          C43          C44          C45     
 Charge   -0.24265     -0.16104     -0.13737     -0.18065     -0.17292
   
 Atom       C46          C47          C48          C49          C50     
 Charge   -0.25371     -0.06019     -0.20956     -0.18350     -0.10769
   
 Atom       C51          C52          C53          C54          C55     
 Charge   -0.14261     -0.15491     -0.08667     -0.17401     -0.19845
   
 Atom       C56          C57          C58          C59          C60     
 Charge   -0.06243     -0.14631     -0.15398     -0.13236     -0.14840
   
 Atom       C61          C62          C63          C64          C65     
 Charge   -0.12701     -0.14585     -0.12451     -0.14092     -0.30989
   
 Atom       C66          C67          C68          C69          C70     
 Charge    0.38065     -0.04723     -0.15221     -0.12459     -0.22980
   
 Atom       N71          S72          O73          O74          C75     
 Charge   -0.31842      0.64710     -0.41973     -0.39015      0.50335
   
 Atom       C76          C77          C78          C79          N80     
 Charge   -0.34690      0.15875     -0.42548      0.34644     -0.55952
   
 Atom       N81          C82          C83          C84          C85     
 Charge   -0.01633     -0.05745     -0.20068     -0.26511      0.10759
   
 Atom       H86          H87          H88          H89          H90     
 Charge    0.08053      0.15527      0.15154      0.20386      0.12876
   
 Atom       H91          H92          H93          H94          H95     
 Charge    0.12508      0.20538      0.15579      0.14592      0.12475
   
 Atom       H96          H97          H98          H99          H100    
 Charge    0.10137      0.12389      0.07780      0.11726      0.14747
   
 Atom       H101         H102         H103         H104         H105    
 Charge   -0.02731      0.16518      0.16669      0.14204      0.08580
   
 Atom       H106         H107         H108         H109         H110    
 Charge    0.13055      0.11942      0.14841      0.11737      0.14182
   
 Atom       H111         H112         H113         H114         H115    
 Charge    0.13871      0.12561      0.12995      0.13519      0.12427
   
 Atom       H116         H117         H118         H119         H120    
 Charge    0.13950      0.13551      0.08759      0.13113      0.13205
   
 Atom       H121         H122         H123         H124         H125    
 Charge    0.13035      0.13692      0.12640      0.12845      0.12820
   
 Atom       H126         H127         H128         H129         H130    
 Charge    0.15278      0.17288      0.12104      0.10399      0.13621
   
 Atom       H131         H132         H133         H134         H135    
 Charge    0.16444      0.17265      0.11509      0.19196      0.06511
   
 Atom       H136         H137         H138         H139         H140    
 Charge    0.29034      0.16064      0.17815      0.20543      0.11652
   
 Atom       S141         O142         C143         O144         F145    
 Charge    0.67271     -0.40951      0.34774     -0.45395     -0.09149
   
 Atom       F146         F147         H148    
 Charge   -0.11394     -0.13114      0.29584
  
  sum of atomic charges:     0.000000
   
 RMS Error   9.69E-04 hartrees
 
  Peak memory usage:    589 Mb
  
  end of program ch
   
 Time(ch)  user:       17.0  user+sys:       17.0  wallclock:       19.4
  
  start of program post
  
  Writing input files for PBF
  Peak memory usage:    536 Mb
  
  end of program post
   
 Time(post)  user:        0.0  user+sys:        0.0  wallclock:        0.2

  start of program pbf

Pbf Version 4.00

Molecular surface area:      861.16774   [A2]
Reaction field energy:       -17.70355   [kT]
  Peak memory usage: 560 Mb

  end of program pbf

 Time(pbf)  user:       11.9  user+sys:       11.9  wallclock:       11.9
  
  start of program solv
  
   number of surface charges from PBF   13434
   sum of surface charges     -0.00039
   
  nuclear repulsion energy.......   20928.586967531 hartrees
  Peak memory usage:    701 Mb
  
  end of program solv
   
 Time(solv)  user:       35.0  user+sys:       35.0  wallclock:       35.2
  
  start of program scf
  
  
       i  u  d  i  g                   
       t  p  i  c  r                                 RMS    maximum
       e  d  i  u  i                       energy  density   DIIS  
       r  t  s  t  d       total energy    change  change    error 
  
etot    1  N  N  1  U   -5575.58842691055           5.1E-05  7.7E-04
etot    2  N  Y  1  U   -5575.58921304414  7.9E-04  1.7E-05  6.4E-04
etot    3  N  Y  1  U   -5575.58945267636  2.4E-04  5.6E-06  3.2E-04
etot    4  N  Y  1  U   -5575.58950462578  5.2E-05  2.5E-06  7.3E-05
etot    5  N  N  1  U   -5575.58951154877  6.9E-06  0.0E+00  0.0E+00
  
  
 Energy components, in hartrees:
   (A)  Total zero-electron terms....   20931.75495350295
   (B)    Nuclear-nuclear............   20928.58696753111
   (C)    Nuclear-solvent............       3.16798597185
   (E)  Total one-electron terms.....  -49391.61563119067
   (F)    Electron-nuclear...........  -54924.54263804707
   (G)    Electron-solvent...........      -3.20738362423
   (H)    Kinetic....................    5536.13439048064
   (I)  Total two-electron terms.....   22884.27116613895
   (J)    Coulomb....................   23535.55897286215
   (K)    Exchange+Correlation.......    -651.28780672320
   (L)  Electronic energy............  -26507.34446505172  (E+I)
   (N)  Total quantum mech. energy...   -5575.58951154877  (A+L)
   (O)  Gas phase energy.............   -5575.55118061459
   (P)  Solution phase energy........   -5575.56981272257  (Q+R+S)
   (Q)    Total solute energy........   -5575.55011389638  (N-C-G)
   (R)    Total solvent energy.......      -0.01969882619  (C/2+G/2)
   (S)    Solute cavity energy.......       0.00000000000
   (U)  Reorganization energy........       0.00106671821  (Q-O)
   (V)  Solvation energy.............      -0.01863210798  (P-O)
  
 SCFE:  Solution phase energy: DFT(m06-2x)      -5575.56981272257 hartrees
        SCF iterations:   5
  
 
 HOMO energy:    -0.24744
 LUMO energy:    -0.06464
 
  Orbital energies (hartrees): 
   -90.17384   -90.14102   -78.21252   -67.01067   -67.00408   -25.27803
   -25.27704   -25.27695   -19.69420   -19.68864   -19.65642   -19.65336
   -19.61363   -19.61239   -19.60928   -14.82441   -14.81864   -14.79137
   -14.74333   -10.79328   -10.66150   -10.63002   -10.62202   -10.62084
   -10.61964   -10.60689   -10.60568   -10.58569   -10.58209   -10.58147
   -10.58043   -10.57952   -10.57217   -10.57114   -10.56853   -10.56712
   -10.56527   -10.56400   -10.56374   -10.56352   -10.56343   -10.56241
   -10.56098   -10.55830   -10.55681   -10.55589   -10.55369   -10.55357
   -10.55345   -10.55335   -10.55231   -10.55202   -10.55135   -10.55123
   -10.55053   -10.55027   -10.55013   -10.54980   -10.54943   -10.54922
   -10.54822   -10.54819   -10.54765   -10.54758   -10.54702   -10.54696
   -10.54690   -10.54659   -10.54658   -10.54580   -10.54518   -10.54458
   -10.54418   -10.54349   -10.54282   -10.54122   -10.53887   -10.53823
   -10.53715   -10.53663   -10.53627   -10.53623   -10.53529   -10.53465
   -10.53409   -10.53404   -10.53370   -10.53243   -10.53239   -10.52871
   -10.52610   -10.52121    -8.48424    -8.44968    -6.99172    -6.40650
    -6.40565    -6.40446    -6.37157    -6.37114    -6.37097    -5.54172
    -5.53548    -5.10997    -5.10945    -5.10758    -3.85159    -3.85120
    -3.85095    -3.84521    -3.84507    -3.84467    -1.44513    -1.35424
    -1.35271    -1.24984    -1.22732    -1.20556    -1.18557    -1.13840
    -1.11600    -1.09300    -1.09187    -1.08231    -1.06247    -0.98357
    -0.97343    -0.97199    -0.96374    -0.94927    -0.94373    -0.94309
    -0.93964    -0.93222    -0.92896    -0.92199    -0.92062    -0.90705
    -0.90158    -0.89539    -0.88686    -0.87902    -0.85288    -0.85109
    -0.84598    -0.84429    -0.84205    -0.84003    -0.83596    -0.83481
    -0.83284    -0.83216    -0.82973    -0.82762    -0.82577    -0.82448
    -0.82416    -0.81970    -0.81936    -0.81644    -0.81482    -0.80083
    -0.79693    -0.76144    -0.75451    -0.73576    -0.72187    -0.71106
    -0.70590    -0.70233    -0.69789    -0.69479    -0.69234    -0.68758
    -0.68679    -0.68198    -0.67701    -0.67529    -0.67463    -0.67405
    -0.67249    -0.67220    -0.67007    -0.66947    -0.66698    -0.66587
    -0.66251    -0.66205    -0.65835    -0.65623    -0.65228    -0.65104
    -0.64556    -0.64252    -0.63642    -0.62395    -0.61808    -0.60867
    -0.60751    -0.60194    -0.59733    -0.58281    -0.58043    -0.57934
    -0.57863    -0.57543    -0.57232    -0.57143    -0.57033    -0.56853
    -0.56763    -0.56054    -0.55744    -0.54917    -0.54893    -0.54458
    -0.54189    -0.54097    -0.53828    -0.53775    -0.53462    -0.53343
    -0.53095    -0.52543    -0.52057    -0.52008    -0.51835    -0.51630
    -0.51546    -0.51455    -0.51184    -0.51014    -0.50918    -0.50752
    -0.50627    -0.50563    -0.50514    -0.50283    -0.50083    -0.49936
    -0.49795    -0.49662    -0.49529    -0.49425    -0.49368    -0.49225
    -0.49031    -0.48825    -0.48781    -0.48734    -0.48653    -0.48504
    -0.48242    -0.48232    -0.48176    -0.48051    -0.47872    -0.47795
    -0.47515    -0.47187    -0.47154    -0.46858    -0.46414    -0.46322
    -0.45756    -0.45187    -0.44986    -0.44926    -0.44749    -0.44650
    -0.44343    -0.44178    -0.44135    -0.43268    -0.43028    -0.42747
    -0.42649    -0.42504    -0.42428    -0.42171    -0.42083    -0.41862
    -0.41807    -0.41363    -0.41231    -0.40910    -0.40655    -0.40280
    -0.40040    -0.40024    -0.39705    -0.39594    -0.39518    -0.39269
    -0.39197    -0.39010    -0.38767    -0.38677    -0.38643    -0.38091
    -0.38021    -0.37798    -0.37436    -0.37195    -0.37053    -0.36274
    -0.35975    -0.35276    -0.35096    -0.34754    -0.34516    -0.34410
    -0.34070    -0.34043    -0.33953    -0.33759    -0.33707    -0.33340
    -0.33125    -0.32845    -0.32322    -0.31726    -0.31274    -0.30607
    -0.30565    -0.30388    -0.30197    -0.30006    -0.29949    -0.29855
    -0.29168    -0.28999    -0.28787    -0.28752    -0.28552    -0.28141
    -0.28125    -0.27618    -0.26903    -0.24744    -0.06464    -0.01776
    -0.01564    -0.00233     0.00249     0.01258     0.01409     0.01613
     0.01898     0.02009
 
  Peak memory usage:    859 Mb
  
  end of program scf
   
 Time(scf)  user:     9108.0  user+sys:     9138.0  wallclock:     9164.9
  
  start of program sole
  
    SCRF                   solvation energy
  iteration          Hartrees            kcal/mol
     0               0.0000000            0.0000
     1              -0.0186321          -11.6918
  
  solvation energy not yet converged... 
  
  Peak memory usage:    635 Mb
  
  end of program sole
   
 Time(sole)  user:        0.0  user+sys:        0.0  wallclock:        0.2
  
  start of program ch
  
  gridpoints used for charge fit        16666
    out of a possible maximum of        16666
  
   Electrostatic potential fitting constrained to reproduce
     total charge:                yes
     dipole moment:               no 
     traceless quadrupole moment: no 
     traceless octapole moment:   no 
  
  Atomic charges from electrostatic potential: 
   
 Atom       C1           C2           C3           C4           C5      
 Charge   -0.00750     -0.14090     -0.23583      0.30185      0.17635
   
 Atom       C6           C7           C8           C9           C10     
 Charge   -0.27510     -0.48238     -0.08268     -0.06638     -0.38667
   
 Atom       C11          O12          Si13         C14          C15     
 Charge    0.24601     -0.13843     -0.14078      0.13257      0.36056
   
 Atom       C16          C17          C18          C19          C20     
 Charge    0.28881     -0.14526     -0.45425     -0.29259      0.20633
   
 Atom       Si21         O22          C23          C24          P25     
 Charge   -0.56300     -0.33594     -0.19362     -0.09056      0.93652
   
 Atom       O26          N27          C28          C29          C30     
 Charge   -0.66254     -0.57180      0.05758      0.01063      0.10190
   
 Atom       C31          C32          C33          C34          C35     
 Charge    0.50725      0.19257      0.24035      0.01532     -0.10832
   
 Atom       C36          C37          C38          C39          C40     
 Charge   -0.05529     -0.12142     -0.20386     -0.03464     -0.32585
   
 Atom       C41          C42          C43          C44          C45     
 Charge   -0.23568     -0.16199     -0.13619     -0.18863     -0.17865
   
 Atom       C46          C47          C48          C49          C50     
 Charge   -0.26052     -0.06940     -0.21646     -0.19528     -0.11363
   
 Atom       C51          C52          C53          C54          C55     
 Charge   -0.15189     -0.16020     -0.09386     -0.18410     -0.20668
   
 Atom       C56          C57          C58          C59          C60     
 Charge   -0.06388     -0.16274     -0.16372     -0.13866     -0.16035
   
 Atom       C61          C62          C63          C64          C65     
 Charge   -0.13181     -0.15754     -0.12744     -0.14990     -0.31190
   
 Atom       C66          C67          C68          C69          C70     
 Charge    0.38967     -0.04486     -0.17431     -0.12280     -0.24073
   
 Atom       N71          S72          O73          O74          C75     
 Charge   -0.30393      0.65565     -0.44104     -0.40099      0.50577
   
 Atom       C76          C77          C78          C79          N80     
 Charge   -0.34821      0.16326     -0.43202      0.35649     -0.58305
   
 Atom       N81          C82          C83          C84          C85     
 Charge   -0.01981     -0.04358     -0.20577     -0.26604      0.10242
   
 Atom       H86          H87          H88          H89          H90     
 Charge    0.08241      0.16377      0.15866      0.21177      0.13743
   
 Atom       H91          H92          H93          H94          H95     
 Charge    0.12762      0.21068      0.16265      0.15382      0.13260
   
 Atom       H96          H97          H98          H99          H100    
 Charge    0.10404      0.12808      0.07867      0.12070      0.15427
   
 Atom       H101         H102         H103         H104         H105    
 Charge   -0.02399      0.17389      0.16553      0.14534      0.08482
   
 Atom       H106         H107         H108         H109         H110    
 Charge    0.13447      0.11857      0.15587      0.12706      0.15156
   
 Atom       H111         H112         H113         H114         H115    
 Charge    0.14745      0.13357      0.13810      0.14107      0.12805
   
 Atom       H116         H117         H118         H119         H120    
 Charge    0.14464      0.13909      0.09179      0.13912      0.14012
   
 Atom       H121         H122         H123         H124         H125    
 Charge    0.13828      0.14579      0.13486      0.13833      0.13503
   
 Atom       H126         H127         H128         H129         H130    
 Charge    0.16212      0.17948      0.11471      0.11695      0.14192
   
 Atom       H131         H132         H133         H134         H135    
 Charge    0.16812      0.16952      0.12449      0.20253      0.07232
   
 Atom       H136         H137         H138         H139         H140    
 Charge    0.28902      0.16338      0.18678      0.21465      0.11808
   
 Atom       S141         O142         C143         O144         F145    
 Charge    0.67390     -0.40600      0.34793     -0.46743     -0.09045
   
 Atom       F146         F147         H148    
 Charge   -0.11421     -0.13601      0.28862
  
  sum of atomic charges:     0.000000
   
 RMS Error   9.79E-04 hartrees
 
  Peak memory usage:    588 Mb
  
  end of program ch
   
 Time(ch)  user:       17.0  user+sys:       17.0  wallclock:       18.7
  
  start of program post
  
  Writing input files for PBF
  Peak memory usage:    536 Mb
  
  end of program post
   
 Time(post)  user:        0.0  user+sys:        0.0  wallclock:        0.2

  start of program pbf

Pbf Version 4.00

Molecular surface area:      861.16774   [A2]
Reaction field energy:       -20.21391   [kT]
  Peak memory usage: 560 Mb

  end of program pbf

 Time(pbf)  user:       12.4  user+sys:       12.4  wallclock:       12.4
  
  start of program solv
  
   number of surface charges from PBF   13434
   sum of surface charges     -0.00042
   
  nuclear repulsion energy.......   20928.586967531 hartrees
  Peak memory usage:    701 Mb
  
  end of program solv
   
 Time(solv)  user:       35.0  user+sys:       35.0  wallclock:       35.2
  
  start of program scf
  
  
       i  u  d  i  g                   
       t  p  i  c  r                                 RMS    maximum
       e  d  i  u  i                       energy  density   DIIS  
       r  t  s  t  d       total energy    change  change    error 
  
etot    1  N  N  1  U   -5575.59217859391           6.0E-06  9.8E-05
etot    2  N  N  1  U   -5575.59218176200  3.2E-06  0.0E+00  0.0E+00
  
  
 Energy components, in hartrees:
   (A)  Total zero-electron terms....   20932.06462839066
   (B)    Nuclear-nuclear............   20928.58696753111
   (C)    Nuclear-solvent............       3.47766085956
   (E)  Total one-electron terms.....  -49392.34137455472
   (F)    Electron-nuclear...........  -54924.96547387488
   (G)    Electron-solvent...........      -3.52003311726
   (H)    Kinetic....................    5536.14413243742
   (I)  Total two-electron terms.....   22884.68456440205
   (J)    Coulomb....................   23535.97419416324
   (K)    Exchange+Correlation.......    -651.28962976118
   (L)  Electronic energy............  -26507.65681015266  (E+I)
   (N)  Total quantum mech. energy...   -5575.59218176200  (A+L)
   (O)  Gas phase energy.............   -5575.55118061459
   (P)  Solution phase energy........   -5575.57099563314  (Q+R+S)
   (Q)    Total solute energy........   -5575.54980950429  (N-C-G)
   (R)    Total solvent energy.......      -0.02118612885  (C/2+G/2)
   (S)    Solute cavity energy.......       0.00000000000
   (U)  Reorganization energy........       0.00137111030  (Q-O)
   (V)  Solvation energy.............      -0.01981501855  (P-O)
  
 SCFE:  Solution phase energy: DFT(m06-2x)      -5575.57099563314 hartrees
        SCF iterations:   2
  
 
 HOMO energy:    -0.28178
 LUMO energy:    -0.06390
 
  Orbital energies (hartrees): 
   -71.15966   -59.16359   -57.30278   -41.09150   -37.56058   -34.22901
   -33.03698   -31.35857   -26.70620   -26.47415   -22.93652   -22.07450
   -21.91712   -16.96772   -16.94005   -16.35650   -16.26572   -15.89939
   -15.50512   -15.37149   -15.24416   -14.50987   -14.20775   -14.18492
   -14.03485   -13.79600   -13.30196   -13.05117   -12.81360   -12.42295
   -12.08066   -11.84480   -11.80402   -11.77440   -11.72722   -11.64751
   -11.55920   -11.43794   -11.41588   -11.28486   -11.17708   -10.83627
   -10.83592   -10.74304   -10.71764   -10.70626   -10.70144   -10.66453
   -10.65261   -10.63232   -10.62825   -10.62623   -10.62144   -10.60173
   -10.55304   -10.54905   -10.54234   -10.53687   -10.51201   -10.50566
   -10.50428   -10.50223   -10.49185   -10.48389   -10.48238   -10.47023
   -10.46735   -10.44583   -10.42119   -10.39382   -10.37009   -10.35105
   -10.33803   -10.32635   -10.28817   -10.28498   -10.28055   -10.27216
   -10.23598   -10.21956   -10.21736   -10.20199   -10.08515   -10.06101
   -10.05507    -9.94501    -9.91361    -9.89662    -9.81204    -9.80444
    -9.80087    -9.78755    -9.75853    -9.69315    -9.63707    -9.53515
    -9.43434    -9.43200    -9.37609    -8.80829    -8.71003    -8.51812
    -7.52014    -7.45070    -7.41521    -6.90995    -6.01076    -5.56595
    -5.48151    -5.31886    -4.54590    -4.31969    -1.46089    -1.32309
    -1.29389    -1.23715    -1.13415    -1.07264    -1.05309    -1.04313
    -1.02057    -0.98792    -0.94929    -0.93607    -0.93292    -0.92869
    -0.92700    -0.92020    -0.91496    -0.91432    -0.91092    -0.90761
    -0.90347    -0.89426    -0.88738    -0.87076    -0.86417    -0.86404
    -0.86003    -0.85604    -0.84398    -0.82175    -0.81547    -0.81392
    -0.80553    -0.79484    -0.79372    -0.79370    -0.79233    -0.78856
    -0.78789    -0.78506    -0.78474    -0.78177    -0.77831    -0.77424
    -0.77295    -0.77062    -0.77029    -0.76556    -0.76543    -0.76076
    -0.75743    -0.74268    -0.73182    -0.72818    -0.71579    -0.70979
    -0.70376    -0.69709    -0.69337    -0.68561    -0.68102    -0.67982
    -0.67736    -0.67638    -0.67298    -0.67243    -0.67077    -0.66314
    -0.66292    -0.65927    -0.65603    -0.65548    -0.65059    -0.64537
    -0.64445    -0.64440    -0.64064    -0.63553    -0.63547    -0.63276
    -0.63141    -0.63039    -0.62868    -0.62653    -0.62204    -0.62111
    -0.62028    -0.61005    -0.60723    -0.59665    -0.59542    -0.59516
    -0.59419    -0.59125    -0.59042    -0.58978    -0.58291    -0.57534
    -0.57283    -0.56747    -0.56443    -0.56210    -0.56086    -0.56007
    -0.55634    -0.55470    -0.55420    -0.55268    -0.55184    -0.55121
    -0.54852    -0.54748    -0.54701    -0.54619    -0.54590    -0.54580
    -0.54552    -0.54479    -0.53943    -0.53867    -0.53748    -0.53529
    -0.53524    -0.53418    -0.53414    -0.53258    -0.53253    -0.53021
    -0.52764    -0.52762    -0.52686    -0.51704    -0.51622    -0.51255
    -0.51233    -0.51129    -0.50876    -0.50856    -0.50601    -0.50515
    -0.50365    -0.50354    -0.50245    -0.49997    -0.49947    -0.49664
    -0.49661    -0.49271    -0.49260    -0.48757    -0.48650    -0.48567
    -0.48442    -0.48411    -0.48330    -0.48319    -0.48193    -0.47703
    -0.47662    -0.47574    -0.47510    -0.47414    -0.47163    -0.47150
    -0.46867    -0.46789    -0.46640    -0.46361    -0.46354    -0.46310
    -0.46232    -0.46077    -0.45616    -0.45532    -0.45439    -0.45242
    -0.45063    -0.44926    -0.44595    -0.44504    -0.44320    -0.44190
    -0.43846    -0.43829    -0.43753    -0.43465    -0.43418    -0.43386
    -0.43350    -0.43226    -0.42824    -0.42173    -0.41995    -0.41946
    -0.41871    -0.41750    -0.41482    -0.41212    -0.40959    -0.40413
    -0.40279    -0.39301    -0.39227    -0.38842    -0.38792    -0.38400
    -0.38336    -0.36367    -0.36191    -0.36120    -0.34691    -0.34031
    -0.33911    -0.33899    -0.33161    -0.31944    -0.31893    -0.31526
    -0.31152    -0.30800    -0.30724    -0.30365    -0.30301    -0.30113
    -0.29458    -0.29017    -0.28696    -0.28178    -0.06390    -0.01730
    -0.01556    -0.00230     0.00287     0.01273     0.01432     0.01648
     0.01919     0.02028
 
  Peak memory usage:    859 Mb
  
  end of program scf
   
 Time(scf)  user:     2319.0  user+sys:     2327.0  wallclock:     2335.0
  
  start of program sole
  
    SCRF                   solvation energy
  iteration          Hartrees            kcal/mol
     0               0.0000000            0.0000
     1              -0.0186321          -11.6918
     2              -0.0198150          -12.4341
  
  solvation energy not yet converged... 
  
  Peak memory usage:    635 Mb
  
  end of program sole
   
 Time(sole)  user:        0.0  user+sys:        0.0  wallclock:        0.2
  
  start of program ch
  
  gridpoints used for charge fit        16666
    out of a possible maximum of        16666
  
   Electrostatic potential fitting constrained to reproduce
     total charge:                yes
     dipole moment:               no 
     traceless quadrupole moment: no 
     traceless octapole moment:   no 
  
  Atomic charges from electrostatic potential: 
   
 Atom       C1           C2           C3           C4           C5      
 Charge   -0.00883     -0.14074     -0.23531      0.30170      0.17593
   
 Atom       C6           C7           C8           C9           C10     
 Charge   -0.27494     -0.48265     -0.08225     -0.06816     -0.38829
   
 Atom       C11          O12          Si13         C14          C15     
 Charge    0.24765     -0.13757     -0.14477      0.13296      0.35968
   
 Atom       C16          C17          C18          C19          C20     
 Charge    0.28897     -0.14678     -0.45366     -0.29288      0.20628
   
 Atom       Si21         O22          C23          C24          P25     
 Charge   -0.56420     -0.33492     -0.19256     -0.09042      0.93433
   
 Atom       O26          N27          C28          C29          C30     
 Charge   -0.66125     -0.57017      0.05849      0.01014      0.10321
   
 Atom       C31          C32          C33          C34          C35     
 Charge    0.50608      0.19197      0.23964      0.01465     -0.11099
   
 Atom       C36          C37          C38          C39          C40     
 Charge   -0.05520     -0.12183     -0.20493     -0.03523     -0.32587
   
 Atom       C41          C42          C43          C44          C45     
 Charge   -0.23504     -0.16168     -0.13682     -0.18903     -0.18020
   
 Atom       C46          C47          C48          C49          C50     
 Charge   -0.26050     -0.06921     -0.21565     -0.19582     -0.11349
   
 Atom       C51          C52          C53          C54          C55     
 Charge   -0.15206     -0.16032     -0.09434     -0.18462     -0.20746
   
 Atom       C56          C57          C58          C59          C60     
 Charge   -0.06268     -0.16345     -0.16415     -0.13835     -0.16049
   
 Atom       C61          C62          C63          C64          C65     
 Charge   -0.13181     -0.15726     -0.12701     -0.14930     -0.31113
   
 Atom       C66          C67          C68          C69          C70     
 Charge    0.38818     -0.04564     -0.17512     -0.12139     -0.24341
   
 Atom       N71          S72          O73          O74          C75     
 Charge   -0.30059      0.65231     -0.44223     -0.40014      0.50382
   
 Atom       C76          C77          C78          C79          N80     
 Charge   -0.34867      0.16477     -0.43056      0.35713     -0.58563
   
 Atom       N81          C82          C83          C84          C85     
 Charge   -0.02084     -0.04069     -0.20341     -0.26506      0.10020
   
 Atom       H86          H87          H88          H89          H90     
 Charge    0.08275      0.16424      0.15896      0.21258      0.13807
   
 Atom       H91          H92          H93          H94          H95     
 Charge    0.12753      0.21065      0.16295      0.15421      0.13311
   
 Atom       H96          H97          H98          H99          H100    
 Charge    0.10389      0.12869      0.07865      0.12075      0.15461
   
 Atom       H101         H102         H103         H104         H105    
 Charge   -0.02323      0.17388      0.16500      0.14527      0.08468
   
 Atom       H106         H107         H108         H109         H110    
 Charge    0.13462      0.11841      0.15647      0.12803      0.15235
   
 Atom       H111         H112         H113         H114         H115    
 Charge    0.14807      0.13415      0.13866      0.14135      0.12801
   
 Atom       H116         H117         H118         H119         H120    
 Charge    0.14467      0.13911      0.09234      0.13970      0.14071
   
 Atom       H121         H122         H123         H124         H125    
 Charge    0.13882      0.14635      0.13559      0.13917      0.13552
   
 Atom       H126         H127         H128         H129         H130    
 Charge    0.16280      0.17977      0.11421      0.11776      0.14214
   
 Atom       H131         H132         H133         H134         H135    
 Charge    0.16859      0.16900      0.12527      0.20362      0.07315
   
 Atom       H136         H137         H138         H139         H140    
 Charge    0.28822      0.16344      0.18732      0.21509      0.11791
   
 Atom       S141         O142         C143         O144         F145    
 Charge    0.67359     -0.40458      0.34750     -0.46857     -0.09020
   
 Atom       F146         F147         H148    
 Charge   -0.11422     -0.13620      0.28658
  
  sum of atomic charges:     0.000000
   
 RMS Error   9.80E-04 hartrees
 
  Peak memory usage:    588 Mb
  
  end of program ch
   
 Time(ch)  user:       17.0  user+sys:       17.0  wallclock:       18.8
  
  start of program post
  
  Writing input files for PBF
  Peak memory usage:    536 Mb
  
  end of program post
   
 Time(post)  user:        0.0  user+sys:        0.0  wallclock:        0.2

  start of program pbf

Pbf Version 4.00

Molecular surface area:      861.16774   [A2]
Reaction field energy:       -20.54672   [kT]
  Peak memory usage: 560 Mb

  end of program pbf

 Time(pbf)  user:       12.8  user+sys:       12.8  wallclock:       12.8
  
  start of program solv
  
   number of surface charges from PBF   13434
   sum of surface charges     -0.00043
   
  nuclear repulsion energy.......   20928.586967531 hartrees
  Peak memory usage:    701 Mb
  
  end of program solv
   
 Time(solv)  user:       35.0  user+sys:       35.0  wallclock:       35.2
  
  start of program scf
  
  
       i  u  d  i  g                   
       t  p  i  c  r                                 RMS    maximum
       e  d  i  u  i                       energy  density   DIIS  
       r  t  s  t  d       total energy    change  change    error 
  
etot    1  N  N  1  U   -5575.59251268790           5.5E-06  9.8E-05
etot    2  N  N  1  U   -5575.59249658721 -1.6E-05  0.0E+00  0.0E+00
  
  
 Energy components, in hartrees:
   (A)  Total zero-electron terms....   20932.12615955035
   (B)    Nuclear-nuclear............   20928.58696753111
   (C)    Nuclear-solvent............       3.53919201924
   (E)  Total one-electron terms.....  -49391.95765412096
   (F)    Electron-nuclear...........  -54924.50522926370
   (G)    Electron-solvent...........      -3.58177729262
   (H)    Kinetic....................    5536.12935243537
   (I)  Total two-electron terms.....   22884.23899798340
   (J)    Coulomb....................   23535.52740060091
   (K)    Exchange+Correlation.......    -651.28840261751
   (L)  Electronic energy............  -26507.71865613756  (E+I)
   (N)  Total quantum mech. energy...   -5575.59249658721  (A+L)
   (O)  Gas phase energy.............   -5575.55118061459
   (P)  Solution phase energy........   -5575.57120395052  (Q+R+S)
   (Q)    Total solute energy........   -5575.54991131383  (N-C-G)
   (R)    Total solvent energy.......      -0.02129263669  (C/2+G/2)
   (S)    Solute cavity energy.......       0.00000000000
   (U)  Reorganization energy........       0.00126930076  (Q-O)
   (V)  Solvation energy.............      -0.02002333593  (P-O)
  
 SCFE:  Solution phase energy: DFT(m06-2x)      -5575.57120395052 hartrees
        SCF iterations:   2
  
 
 HOMO energy:    -0.24829
 LUMO energy:    -0.06489
 
  Orbital energies (hartrees): 
   -90.17557   -90.14216   -78.21375   -67.01170   -67.00525   -25.27928
   -25.27805   -25.27787   -19.69555   -19.68991   -19.65805   -19.65341
   -19.61529   -19.61231   -19.60977   -14.82543   -14.82102   -14.79301
   -14.74467   -10.79431   -10.66335   -10.63176   -10.62378   -10.62218
   -10.61822   -10.60655   -10.60624   -10.58444   -10.58309   -10.58176
   -10.57961   -10.57780   -10.57319   -10.57068   -10.56869   -10.56660
   -10.56476   -10.56467   -10.56411   -10.56406   -10.56367   -10.56243
   -10.56114   -10.55808   -10.55724   -10.55485   -10.55408   -10.55382
   -10.55355   -10.55296   -10.55213   -10.55184   -10.55164   -10.55110
   -10.55107   -10.55048   -10.55046   -10.55002   -10.54966   -10.54958
   -10.54882   -10.54793   -10.54778   -10.54778   -10.54743   -10.54726
   -10.54719   -10.54701   -10.54682   -10.54648   -10.54534   -10.54492
   -10.54429   -10.54415   -10.54389   -10.54233   -10.54002   -10.53942
   -10.53819   -10.53790   -10.53730   -10.53629   -10.53625   -10.53575
   -10.53544   -10.53484   -10.53440   -10.53375   -10.53279   -10.52988
   -10.52749   -10.52266    -8.48590    -8.45081    -6.99294    -6.40817
    -6.40733    -6.40613    -6.37269    -6.37226    -6.37210    -5.54275
    -5.53664    -5.11119    -5.11068    -5.10880    -3.85261    -3.85222
    -3.85198    -3.84637    -3.84623    -3.84583    -1.44621    -1.35534
    -1.35378    -1.25118    -1.22857    -1.20657    -1.18687    -1.13960
    -1.11617    -1.09394    -1.09268    -1.08304    -1.06405    -0.98449
    -0.97423    -0.97217    -0.96444    -0.94933    -0.94406    -0.94359
    -0.94007    -0.93335    -0.92965    -0.92161    -0.92118    -0.90772
    -0.90117    -0.89570    -0.88768    -0.87915    -0.85266    -0.85166
    -0.84619    -0.84427    -0.84257    -0.84004    -0.83643    -0.83519
    -0.83340    -0.83265    -0.83022    -0.82824    -0.82627    -0.82511
    -0.82510    -0.82056    -0.82021    -0.81712    -0.81585    -0.80137
    -0.79770    -0.76194    -0.75551    -0.73571    -0.72283    -0.71141
    -0.70662    -0.70307    -0.69851    -0.69483    -0.69241    -0.68808
    -0.68720    -0.68212    -0.67737    -0.67559    -0.67527    -0.67463
    -0.67296    -0.67181    -0.67111    -0.67016    -0.66744    -0.66666
    -0.66301    -0.66291    -0.65887    -0.65710    -0.65282    -0.65129
    -0.64633    -0.64318    -0.63728    -0.62475    -0.61836    -0.60923
    -0.60835    -0.60249    -0.59801    -0.58297    -0.58089    -0.57965
    -0.57899    -0.57611    -0.57309    -0.57209    -0.57085    -0.56877
    -0.56773    -0.56122    -0.55805    -0.55007    -0.54969    -0.54559
    -0.54221    -0.54127    -0.53881    -0.53849    -0.53530    -0.53375
    -0.53100    -0.52591    -0.52119    -0.52030    -0.51888    -0.51652
    -0.51593    -0.51546    -0.51248    -0.51078    -0.50977    -0.50767
    -0.50702    -0.50640    -0.50556    -0.50337    -0.50135    -0.49979
    -0.49805    -0.49705    -0.49587    -0.49477    -0.49415    -0.49270
    -0.49134    -0.48860    -0.48849    -0.48743    -0.48659    -0.48558
    -0.48280    -0.48253    -0.48240    -0.48071    -0.47897    -0.47825
    -0.47463    -0.47245    -0.47218    -0.46919    -0.46486    -0.46360
    -0.45724    -0.45226    -0.45045    -0.44974    -0.44800    -0.44683
    -0.44385    -0.44252    -0.44185    -0.43345    -0.43085    -0.42791
    -0.42674    -0.42559    -0.42457    -0.42235    -0.42131    -0.41941
    -0.41866    -0.41435    -0.41303    -0.41000    -0.40708    -0.40368
    -0.40086    -0.40079    -0.39751    -0.39665    -0.39558    -0.39320
    -0.39261    -0.39042    -0.38814    -0.38769    -0.38700    -0.38194
    -0.38094    -0.37860    -0.37508    -0.37280    -0.37131    -0.36340
    -0.35979    -0.35358    -0.35179    -0.34828    -0.34581    -0.34474
    -0.34154    -0.34064    -0.34033    -0.33835    -0.33713    -0.33411
    -0.33212    -0.32935    -0.32408    -0.31739    -0.31258    -0.30655
    -0.30572    -0.30405    -0.30255    -0.30070    -0.29978    -0.29907
    -0.29204    -0.29062    -0.28891    -0.28819    -0.28616    -0.28235
    -0.28207    -0.27686    -0.26992    -0.24829    -0.06489    -0.01800
    -0.01645    -0.00294     0.00256     0.01181     0.01385     0.01600
     0.01854     0.01965
 
  Peak memory usage:    859 Mb
  
  end of program scf
   
 Time(scf)  user:     2294.0  user+sys:     2302.0  wallclock:     2308.3
  
  start of program sole
  
    SCRF                   solvation energy
  iteration          Hartrees            kcal/mol
     0               0.0000000            0.0000
     1              -0.0186321          -11.6918
     2              -0.0198150          -12.4341
     3              -0.0200233          -12.5648
  
  solvation energy not yet converged... 
  
  Peak memory usage:    635 Mb
  
  end of program sole
   
 Time(sole)  user:        0.0  user+sys:        0.0  wallclock:        0.2
  
  start of program ch
  
  gridpoints used for charge fit        16666
    out of a possible maximum of        16666
  
   Electrostatic potential fitting constrained to reproduce
     total charge:                yes
     dipole moment:               no 
     traceless quadrupole moment: no 
     traceless octapole moment:   no 
  
  Atomic charges from electrostatic potential: 
   
 Atom       C1           C2           C3           C4           C5      
 Charge   -0.00654     -0.14048     -0.23724      0.30158      0.17733
   
 Atom       C6           C7           C8           C9           C10     
 Charge   -0.27577     -0.48463     -0.08321     -0.06759     -0.38673
   
 Atom       C11          O12          Si13         C14          C15     
 Charge    0.24873     -0.13776     -0.14344      0.13297      0.36176
   
 Atom       C16          C17          C18          C19          C20     
 Charge    0.28835     -0.14489     -0.45545     -0.29325      0.20749
   
 Atom       Si21         O22          C23          C24          P25     
 Charge   -0.56411     -0.33537     -0.19506     -0.09134      0.93563
   
 Atom       O26          N27          C28          C29          C30     
 Charge   -0.66233     -0.56919      0.05943      0.01090      0.10391
   
 Atom       C31          C32          C33          C34          C35     
 Charge    0.50854      0.19331      0.24174      0.01528     -0.10893
   
 Atom       C36          C37          C38          C39          C40     
 Charge   -0.05516     -0.12091     -0.20529     -0.03455     -0.32676
   
 Atom       C41          C42          C43          C44          C45     
 Charge   -0.23410     -0.16212     -0.13568     -0.18941     -0.17849
   
 Atom       C46          C47          C48          C49          C50     
 Charge   -0.26099     -0.07066     -0.21742     -0.19623     -0.11410
   
 Atom       C51          C52          C53          C54          C55     
 Charge   -0.15285     -0.16077     -0.09457     -0.18509     -0.20752
   
 Atom       C56          C57          C58          C59          C60     
 Charge   -0.06370     -0.16549     -0.16442     -0.13936     -0.16150
   
 Atom       C61          C62          C63          C64          C65     
 Charge   -0.13255     -0.15885     -0.12810     -0.15168     -0.31104
   
 Atom       C66          C67          C68          C69          C70     
 Charge    0.38908     -0.04183     -0.17706     -0.12289     -0.24045
   
 Atom       N71          S72          O73          O74          C75     
 Charge   -0.29864      0.65513     -0.44348     -0.40262      0.50687
   
 Atom       C76          C77          C78          C79          N80     
 Charge   -0.34905      0.16321     -0.43312      0.35670     -0.58420
   
 Atom       N81          C82          C83          C84          C85     
 Charge   -0.01832     -0.04523     -0.20652     -0.26605      0.10135
   
 Atom       H86          H87          H88          H89          H90     
 Charge    0.08206      0.16450      0.15914      0.21233      0.13833
   
 Atom       H91          H92          H93          H94          H95     
 Charge    0.12729      0.21074      0.16301      0.15451      0.13332
   
 Atom       H96          H97          H98          H99          H100    
 Charge    0.10369      0.12833      0.07841      0.12051      0.15458
   
 Atom       H101         H102         H103         H104         H105    
 Charge   -0.02360      0.17473      0.16479      0.14524      0.08421
   
 Atom       H106         H107         H108         H109         H110    
 Charge    0.13428      0.11823      0.15654      0.12824      0.15255
   
 Atom       H111         H112         H113         H114         H115    
 Charge    0.14810      0.13422      0.13871      0.14123      0.12785
   
 Atom       H116         H117         H118         H119         H120    
 Charge    0.14471      0.13952      0.09196      0.13985      0.14073
   
 Atom       H121         H122         H123         H124         H125    
 Charge    0.13897      0.14643      0.13571      0.13942      0.13555
   
 Atom       H126         H127         H128         H129         H130    
 Charge    0.16327      0.17965      0.11354      0.11785      0.14241
   
 Atom       H131         H132         H133         H134         H135    
 Charge    0.16810      0.16880      0.12560      0.20408      0.07313
   
 Atom       H136         H137         H138         H139         H140    
 Charge    0.28894      0.16405      0.18812      0.21553      0.11806
   
 Atom       S141         O142         C143         O144         F145    
 Charge    0.67345     -0.40598      0.34753     -0.46786     -0.09039
   
 Atom       F146         F147         H148    
 Charge   -0.11409     -0.13653      0.28671
  
  sum of atomic charges:     0.000000
   
 RMS Error   9.81E-04 hartrees
 
  Peak memory usage:    588 Mb
  
  end of program ch
   
 Time(ch)  user:       17.0  user+sys:       17.0  wallclock:       18.4
  
  start of program post
  
  Writing input files for PBF
  Peak memory usage:    536 Mb
  
  end of program post
   
 Time(post)  user:        0.0  user+sys:        0.0  wallclock:        0.2

  start of program pbf

Pbf Version 4.00

Molecular surface area:      861.16774   [A2]
Reaction field energy:       -20.43460   [kT]
  Peak memory usage: 560 Mb

  end of program pbf

 Time(pbf)  user:       12.5  user+sys:       12.6  wallclock:       12.6
  
  start of program solv
  
   number of surface charges from PBF   13434
   sum of surface charges     -0.00042
   
  nuclear repulsion energy.......   20928.586967531 hartrees
  Peak memory usage:    701 Mb
  
  end of program solv
   
 Time(solv)  user:       35.0  user+sys:       35.0  wallclock:       35.2
  
  start of program scf
  
  
       i  u  d  i  g                   
       t  p  i  c  r                                 RMS    maximum
       e  d  i  u  i                       energy  density   DIIS  
       r  t  s  t  d       total energy    change  change    error 
  
etot    1  N  N  1  U   -5575.59239365189           8.8E-06  1.6E-04
etot    2  N  Y  1  U   -5575.59233725224 -5.6E-05  5.8E-06  2.9E-04
etot    3  N  Y  1  U   -5575.59241672905  7.9E-05  2.0E-07  1.0E-05
etot    4  N  N  1  U   -5575.59241679898  7.0E-08  0.0E+00  0.0E+00
  
  
 Energy components, in hartrees:
   (A)  Total zero-electron terms....   20932.08821302332
   (B)    Nuclear-nuclear............   20928.58696753111
   (C)    Nuclear-solvent............       3.50124549221
   (E)  Total one-electron terms.....  -49392.18189761245
   (F)    Electron-nuclear...........  -54924.77364925729
   (G)    Electron-solvent...........      -3.54379513155
   (H)    Kinetic....................    5536.13554677640
   (I)  Total two-electron terms.....   22884.50126779015
   (J)    Coulomb....................   23535.79009693559
   (K)    Exchange+Correlation.......    -651.28882914544
   (L)  Electronic energy............  -26507.68062982230  (E+I)
   (N)  Total quantum mech. energy...   -5575.59241679898  (A+L)
   (O)  Gas phase energy.............   -5575.55118061459
   (P)  Solution phase energy........   -5575.57114197931  (Q+R+S)
   (Q)    Total solute energy........   -5575.54986715965  (N-C-G)
   (R)    Total solvent energy.......      -0.02127481967  (C/2+G/2)
   (S)    Solute cavity energy.......       0.00000000000
   (U)  Reorganization energy........       0.00131345494  (Q-O)
   (V)  Solvation energy.............      -0.01996136472  (P-O)
  
 SCFE:  Solution phase energy: DFT(m06-2x)      -5575.57114197931 hartrees
        SCF iterations:   4
  
 
 HOMO energy:    -0.24778
 LUMO energy:    -0.06424
 
  Orbital energies (hartrees): 
   -90.17404   -90.14150   -78.21255   -67.01082   -67.00414   -25.27864
   -25.27797   -25.27776   -19.69411   -19.68888   -19.65743   -19.65454
   -19.61402   -19.61310   -19.60930   -14.82395   -14.81818   -14.79110
   -14.74348   -10.79397   -10.66089   -10.63005   -10.62194   -10.62090
   -10.61934   -10.60629   -10.60532   -10.58525   -10.58158   -10.58139
   -10.57989   -10.57880   -10.57229   -10.57053   -10.56796   -10.56707
   -10.56499   -10.56377   -10.56370   -10.56358   -10.56326   -10.56263
   -10.56127   -10.55806   -10.55678   -10.55562   -10.55402   -10.55395
   -10.55370   -10.55325   -10.55219   -10.55211   -10.55151   -10.55106
   -10.55103   -10.55033   -10.55021   -10.55007   -10.54981   -10.54956
   -10.54850   -10.54816   -10.54814   -10.54793   -10.54734   -10.54725
   -10.54714   -10.54705   -10.54690   -10.54576   -10.54547   -10.54496
   -10.54470   -10.54385   -10.54291   -10.54188   -10.53882   -10.53881
   -10.53784   -10.53747   -10.53659   -10.53626   -10.53616   -10.53506
   -10.53447   -10.53414   -10.53382   -10.53287   -10.53233   -10.52899
   -10.52648   -10.52131    -8.48447    -8.45016    -6.99177    -6.40673
    -6.40589    -6.40468    -6.37204    -6.37161    -6.37144    -5.54188
    -5.53554    -5.11001    -5.10950    -5.10763    -3.85174    -3.85136
    -3.85111    -3.84528    -3.84513    -3.84474    -1.44591    -1.35497
    -1.35355    -1.25043    -1.22742    -1.20603    -1.18564    -1.13915
    -1.11564    -1.09349    -1.09188    -1.08212    -1.06223    -0.98378
    -0.97352    -0.97171    -0.96409    -0.94919    -0.94378    -0.94343
    -0.93989    -0.93289    -0.92920    -0.92167    -0.92082    -0.90737
    -0.90113    -0.89518    -0.88714    -0.87862    -0.85243    -0.85139
    -0.84596    -0.84405    -0.84220    -0.83991    -0.83627    -0.83485
    -0.83302    -0.83248    -0.82997    -0.82779    -0.82597    -0.82476
    -0.82470    -0.82014    -0.81981    -0.81662    -0.81544    -0.80066
    -0.79725    -0.76119    -0.75481    -0.73544    -0.72230    -0.71079
    -0.70613    -0.70255    -0.69805    -0.69445    -0.69203    -0.68770
    -0.68650    -0.68198    -0.67711    -0.67532    -0.67493    -0.67437
    -0.67273    -0.67175    -0.67077    -0.66981    -0.66721    -0.66629
    -0.66272    -0.66253    -0.65854    -0.65672    -0.65240    -0.65092
    -0.64586    -0.64248    -0.63654    -0.62413    -0.61781    -0.60886
    -0.60768    -0.60209    -0.59754    -0.58282    -0.58061    -0.57928
    -0.57870    -0.57575    -0.57265    -0.57166    -0.57052    -0.56853
    -0.56734    -0.56070    -0.55768    -0.54972    -0.54919    -0.54525
    -0.54174    -0.54073    -0.53839    -0.53807    -0.53478    -0.53345
    -0.53072    -0.52561    -0.52075    -0.52013    -0.51850    -0.51627
    -0.51559    -0.51502    -0.51217    -0.51048    -0.50946    -0.50725
    -0.50672    -0.50603    -0.50526    -0.50306    -0.50113    -0.49945
    -0.49774    -0.49673    -0.49545    -0.49441    -0.49377    -0.49244
    -0.49095    -0.48835    -0.48816    -0.48735    -0.48643    -0.48526
    -0.48262    -0.48219    -0.48190    -0.48045    -0.47877    -0.47797
    -0.47476    -0.47212    -0.47179    -0.46879    -0.46438    -0.46316
    -0.45724    -0.45201    -0.45012    -0.44941    -0.44772    -0.44659
    -0.44341    -0.44201    -0.44146    -0.43295    -0.43049    -0.42754
    -0.42652    -0.42527    -0.42429    -0.42191    -0.42106    -0.41881
    -0.41828    -0.41393    -0.41263    -0.40954    -0.40667    -0.40309
    -0.40054    -0.40048    -0.39719    -0.39627    -0.39532    -0.39290
    -0.39226    -0.39007    -0.38795    -0.38715    -0.38656    -0.38150
    -0.38051    -0.37822    -0.37457    -0.37226    -0.37078    -0.36306
    -0.35959    -0.35295    -0.35123    -0.34748    -0.34527    -0.34429
    -0.34105    -0.34028    -0.33975    -0.33779    -0.33688    -0.33355
    -0.33149    -0.32875    -0.32353    -0.31691    -0.31235    -0.30621
    -0.30556    -0.30380    -0.30236    -0.30044    -0.29951    -0.29890
    -0.29151    -0.29019    -0.28844    -0.28773    -0.28571    -0.28189
    -0.28166    -0.27641    -0.26929    -0.24778    -0.06424    -0.01757
    -0.01594    -0.00258     0.00276     0.01236     0.01415     0.01633
     0.01895     0.02001
 
  Peak memory usage:    859 Mb
  
  end of program scf
   
 Time(scf)  user:     6859.0  user+sys:     6882.0  wallclock:     6902.5
  
  start of program sole
  
    SCRF                   solvation energy
  iteration          Hartrees            kcal/mol
     0               0.0000000            0.0000
     1              -0.0186321          -11.6918
     2              -0.0198150          -12.4341
     3              -0.0200233          -12.5648
     4              -0.0199614          -12.5259
  
  stopping: solvation energy converged
  
  iterations:   4    sfinal:    -12.5259 kcal/mol
  
  Peak memory usage:    635 Mb
  
  end of program sole
   
 Time(sole)  user:        0.0  user+sys:        0.0  wallclock:        0.2
  
  start of program post
  
  Writing input files for PBF
  Peak memory usage:    536 Mb
  
  end of program post
   
 Time(post)  user:        0.0  user+sys:        0.0  wallclock:        0.2

 Total cpu seconds     user:   55741.000   user+sys:   55953.000
  
 Total elapsed time:    57551 seconds

Job Toru-SiPh3-NTf-Type-I-E-1-chkp-scan-unrestrained-fine-uff-acc-sol completed on tethys at Sat Nov 12 07:23:41 2016
