[running at reduced cpu priority]
Job Toru-SiPh3-NTf-Type-I-E-4-scan-TS-2-uff-fine-acc-sol started on tethys at Fri Feb 10 14:43:23 2017
jobid: tethys-0-589dd18a 
Jaguar version 8.4, release  16
Molecular Point Group: C1      
Point Group used: C1
pre (input checking) done.
onee (1-electron integrals) done.
hfig (HF initial guess) done.
probe (project orbitals) done.
grid (grid generation) done.
rwr (Q operators) done.
scf type: DFT=M06-2X
  
       i  u  d  i  g
       t  p  i  c  r                                 RMS    maximum
       e  d  i  u  i                       energy  density   DIIS  
       r  t  s  t  d       total energy    change  change    error 
  
etot    1  N  N  1  U   -5562.73187240074           3.7E-03  1.2E-01
etot    2  N  Y  1  U   -5531.57993914125 -3.1E+01  1.4E-02  1.4E-01
etot    3  N  Y  1  U   -5309.03107137184 -2.2E+02  1.4E-02  3.4E-01
etot    4  N  Y  1  U   -5570.33367760334  2.6E+02  2.3E-03  8.3E-02
etot    5  N  Y  1  U   -5573.22833081817  2.9E+00  1.5E-03  3.6E-02
etot    6  N  Y  1  U   -5572.86708556392 -3.6E-01  9.8E-04  4.1E-02
etot    7  N  Y  1  U   -5575.45761588749  2.6E+00  2.4E-04  1.1E-02
etot    8  N  Y  1  U   -5575.54260343310  8.5E-02  9.2E-05  3.7E-03
etot    9  N  Y  1  U   -5575.55097446236  8.4E-03  4.3E-05  1.5E-03
etot   10  N  Y  1  U   -5575.55397815129  3.0E-03  1.9E-05  9.6E-04
etot   11  N  Y  1  U   -5575.55459332339  6.2E-04  1.2E-05  4.6E-04
etot   12  N  Y  1  U   -5575.55480574933  2.1E-04  5.5E-06  1.7E-04
etot   13  N  N  1  U   -5575.55484032158  3.5E-05  0.0E+00  0.0E+00
scf (DFT) done.
--------gas phase calculation complete----------------------
ch (properties) done.
post (output conversion) done.
pbf (Poisson-Boltzmann solver) done.
solv (solvation checking) done.
  
       i  u  d  i  g
       t  p  i  c  r                                 RMS    maximum
       e  d  i  u  i                       energy  density   DIIS  
       r  t  s  t  d       total energy    change  change    error 
  
etot    1  N  N  1  U   -5575.59189393304           5.2E-05  8.0E-04
etot    2  N  Y  1  U   -5575.59269191393  8.0E-04  1.6E-05  6.0E-04
etot    3  N  Y  1  U   -5575.59293526695  2.4E-04  5.2E-06  2.7E-04
etot    4  N  N  1  U   -5575.59298279252  4.8E-05  0.0E+00  0.0E+00
scf (DFT) done.
sole (solvation energy) done.
----------solvation iteration  1 complete------------------
ch (properties) done.
post (output conversion) done.
pbf (Poisson-Boltzmann solver) done.
solv (solvation checking) done.
  
       i  u  d  i  g
       t  p  i  c  r                                 RMS    maximum
       e  d  i  u  i                       energy  density   DIIS  
       r  t  s  t  d       total energy    change  change    error 
  
etot    1  N  N  1  U   -5575.59565418699           6.4E-06  1.1E-04
etot    2  N  N  1  U   -5575.59566310427  8.9E-06  0.0E+00  0.0E+00
scf (DFT) done.
sole (solvation energy) done.
----------solvation iteration  2 complete------------------
ch (properties) done.
post (output conversion) done.
pbf (Poisson-Boltzmann solver) done.
solv (solvation checking) done.
  
       i  u  d  i  g
       t  p  i  c  r                                 RMS    maximum
       e  d  i  u  i                       energy  density   DIIS  
       r  t  s  t  d       total energy    change  change    error 
  
etot    1  N  N  1  U   -5575.59600970635           5.0E-06  9.6E-05
etot    2  N  N  1  U   -5575.59599581748 -1.4E-05  0.0E+00  0.0E+00
scf (DFT) done.
sole (solvation energy) done.
----------solvation iteration  3 complete------------------
ch (properties) done.
post (output conversion) done.
pbf (Poisson-Boltzmann solver) done.
solv (solvation checking) done.
  
       i  u  d  i  g
       t  p  i  c  r                                 RMS    maximum
       e  d  i  u  i                       energy  density   DIIS  
       r  t  s  t  d       total energy    change  change    error 
  
etot    1  N  N  1  U   -5575.59597289636           8.1E-06  1.6E-04
etot    2  N  N  1  U   -5575.59593089741 -4.2E-05  0.0E+00  0.0E+00
scf (DFT) done.
sole (solvation energy) done.
----final solvation iteration  4 complete------------------
post (output conversion) done.
Job Toru-SiPh3-NTf-Type-I-E-4-scan-TS-2-uff-fine-acc-sol completed on tethys at Sat Feb 11 14:21:31 2017
