Job Type-I-Z-sulfonyl-bind-3-chkp-unrestrained-SPE started on tethys at Fri Mar  3 14:00:14 2017
jobid: tethys-0-58b976eb

  +--------------------------------------------------------------------+
  |  Jaguar version 9.5, release  11                                   |
  |                                                                    |
  |  Copyright Schrodinger, Inc.                                       |
  |  All Rights Reserved.                                              |
  |                                                                    |
  |  The following have contributed to Jaguar (listed alphabetically): |
  |  Mike Beachy, Art Bochevarov, Dale Braden, Yixiang Cao,            |
  |  Chris Cortis, Rich Friesner, Bill Goddard, Hod Greeley,           |
  |  Tom Hughes, Leif Jacobson, Jean-Marc Langlois,                    |
  |  Daniel Mainz, Rob Murphy, Dean Philipp, Tom Pollard,              |
  |  Murco Ringnalda, Mark Watson, Haoyu Yu.                           |
  |                                                                    |
  |  Use of this program should be acknowledged in publications as:    |
  |                                                                    |
  |  Jaguar, version 9.5, Schrodinger, Inc., New York, NY, 2017.       |
  |                                                                    |
  |  A. D. Bochevarov, E. Harder, T. F. Hughes, J. R. Greenwood,       |
  |  D. A. Braden, D. M. Philipp, D. Rinaldo, M. D. Halls,             |
  |  J. Zhang, R. A. Friesner, "Jaguar: A High-Performance Quantum     |
  |  Chemistry Software Program with Strengths in Life and Materials   |
  |  Sciences", Int. J. Quantum Chem., 2013, 113(18), 2110-2142.       |
  +--------------------------------------------------------------------+
  
  start of program pre
  
  Job name: Type-I-Z-sulfonyl-bind-3-chkp-unrestrained-SPE
  Executables used: /usr/local/shared/schrodinger/current/jaguar-v9.5/bin/Linux-x86_64
  Temporary files : /scratch/ab2144/Type-I-Z-sulfonyl-bind-3-chkp-unrestrained-SPE
  Maestro file (input):  Type-I-Z-sulfonyl-bind-3-chkp-unrestrained-SPE.mae
  Maestro file (output): Type-I-Z-sulfonyl-bind-3-chkp-unrestrained-SPE.01.mae
  
  basis set:             6-31g**                         
  net molecular charge:    0
  multiplicity:            1
  
  keygrid settings 
    wispc.....   7.500E-01
    ldens.....   0
    denspc....   7.500E-01
  
   grid     daf set  nls  grid set  Q type
  ------    -------  ---  --------  ------
  coarse       1      1       1        1
  medium       2      2       2        1
  fine         3      2       3        0
  ultrafine    4      2       4        1
  charge       0      1      -1        1
  gradient     5      2       4        1
  density      0      1       0        0
  DFT-fine     0      1     -13        0
  DFT-med.     0      1     -13        0
  DFT-grad     0      1     -13        0
  DFT-der2     0      1       0        0
  DFT-cphf     0      1       0        0
  LMP2-enrg    4      2       4        1
  LMP2-grad    5      2       2        1
  DFT-cphf2    0      1       0        0
  PBF-dens     0      1       0        0
  plotting     0      1       0        0
  Rel-grad     0      1     -17        0
  
  idftgrdm  100
  ndftgrdm   50    0    0
  idftgrdf  111
  ndftgrdf   85    0    0
  idftgrdg  111
  ndftgrdg   80    3    0
  idftgrdu  433
  ndftgrdu  105    0    0
  idftgrdd  433
  ndftgrdd  105    0    0
  idftgrdc  433
  ndftgrdc   26    0    0
  idftgrdp  433
  ndftgrdp   18    0    0
  
  number of basis functions....         1680
  
 Input geometry:
                                   angstroms
  atom               x                 y                 z
  C1           -2.7097000000      2.3147000000     -0.2928000000 
  C2           -5.2166000000      1.4092000000      0.6593000000 
  C3           -4.1252000000      0.4368000000      0.4348000000 
  C4           -2.9032000000      0.8734000000      0.0604000000 
  H5           -6.1889000000      1.0652000000      0.9849000000 
  C6            0.8982000000      3.9484000000     -1.9664000000 
  C7            0.9384000000      3.2882000000     -0.7993000000 
  C8           -0.2743000000      2.5566000000     -0.3343000000 
  C9           -1.4512000000      2.7399000000     -0.9626000000 
  H10           1.7578000000      4.4943000000     -2.3247000000 
  C11          -3.6938000000      3.2041000000     -0.0132000000 
  C12          -5.0071000000      2.7174000000      0.4778000000 
  C13          -6.0839000000      3.6984000000      0.7199000000 
  C14          -5.8655000000      5.0028000000      0.5241000000 
  C15          -4.5509000000      5.5039000000      0.0713000000 
  C16          -3.5322000000      4.6729000000     -0.1783000000 
  H17          -7.0589000000      3.3678000000      1.0580000000 
  H18          -6.6635000000      5.7109000000      0.7071000000 
  H19          -4.4107000000      6.5703000000     -0.0514000000 
  H20          -2.5844000000      5.0990000000     -0.4800000000 
  C21          -0.3369000000      3.9696000000     -2.7757000000 
  C22          -1.4687000000      3.4040000000     -2.2993000000 
  C23          -2.6905000000      3.4031000000     -3.1483000000 
  C24          -2.6776000000      3.9889000000     -4.3511000000 
  C25          -1.4474000000      4.6336000000     -4.8491000000 
  C26          -0.3362000000      4.6233000000     -4.1048000000 
  H27          -3.5966000000      2.9176000000     -2.8104000000 
  H28          -3.5681000000      3.9844000000     -4.9663000000 
  H29          -1.4455000000      5.1092000000     -5.8214000000 
  H30           0.5648000000      5.0926000000     -4.4799000000 
  Si31         -4.4672000000     -1.3809000000      0.7049000000 
  Si32          2.4404000000      3.4304000000      0.3097000000 
  C33          -3.6882000000     -3.7643000000     -3.2655000000 
  C34          -4.0461000000     -4.4144000000     -2.1525000000 
  C35          -4.3105000000     -3.6623000000     -0.9084000000 
  C36          -4.1643000000     -2.3263000000     -0.8776000000 
  C37          -3.8165000000     -1.6091000000     -2.1295000000 
  C38          -3.5806000000     -2.2922000000     -3.2563000000 
  H39          -3.4909000000     -4.3135000000     -4.1769000000 
  H40          -4.1383000000     -5.4927000000     -2.1590000000 
  H41          -4.6167000000     -4.2068000000     -0.0238000000 
  H42          -3.7695000000     -0.5300000000     -2.1512000000 
  H43          -3.3243000000     -1.7660000000     -4.1668000000 
  C44          -1.7761000000     -2.8549000000      4.2534000000 
  C45          -2.4289000000     -1.6915000000      4.3387000000 
  C46          -3.2448000000     -1.2166000000      3.2028000000 
  C47          -3.3418000000     -1.9494000000      2.0796000000 
  C48          -2.5554000000     -3.2040000000      1.9675000000 
  C49          -1.8328000000     -3.6415000000      3.0057000000 
  H50          -1.1869000000     -3.2105000000      5.0885000000 
  H51          -2.3728000000     -1.1022000000      5.2446000000 
  H52          -3.7631000000     -0.2717000000      3.2983000000 
  H53          -2.5441000000     -3.7744000000      1.0525000000 
  H54          -1.2633000000     -4.5584000000      2.9233000000 
  C55          -8.9356000000     -2.0002000000      2.0165000000 
  C56          -8.5389000000     -2.3823000000      0.7978000000 
  C57          -7.1345000000     -2.1895000000      0.3806000000 
  C58          -6.2431000000     -1.6383000000      1.2242000000 
  C59          -6.6961000000     -1.2074000000      2.5711000000 
  C60          -7.9698000000     -1.3808000000      2.9445000000 
  H61          -9.9643000000     -2.1395000000      2.3228000000 
  H62          -9.2463000000     -2.8320000000      0.1131000000 
  H63          -6.8519000000     -2.4892000000     -0.6188000000 
  H64          -6.0097000000     -0.7384000000      3.2591000000 
  H65          -8.2965000000     -1.0619000000      3.9259000000 
  C66           5.6344000000      0.1539000000     -0.6842000000 
  C67           4.5249000000      0.2476000000     -1.4259000000 
  C68           3.4931000000      1.2516000000     -1.0940000000 
  C69           3.6685000000      2.0824000000     -0.0538000000 
  C70           4.9164000000      1.9965000000      0.7435000000 
  C71           5.8400000000      1.0721000000      0.4533000000 
  H72           6.3849000000     -0.5894000000     -0.9199000000 
  H73           4.3793000000     -0.4144000000     -2.2695000000 
  H74           2.6156000000      1.3206000000     -1.7208000000 
  H75           5.0863000000      2.6818000000      1.5644000000 
  H76           6.7443000000      1.0029000000      1.0439000000 
  C77           0.7256000000      3.2687000000      4.6684000000 
  C78           1.7208000000      2.4448000000      4.3208000000 
  C79           2.2895000000      2.5041000000      2.9585000000 
  C80           1.8173000000      3.3868000000      2.0648000000 
  C81           0.7143000000      4.2987000000      2.4573000000 
  C82           0.1973000000      4.2409000000      3.6905000000 
  H83           0.3050000000      3.2237000000      5.6646000000 
  H84           2.1073000000      1.7282000000      5.0338000000 
  H85           3.0784000000      1.8195000000      2.6991000000 
  H86           0.3150000000      5.0078000000      1.7427000000 
  H87          -0.6109000000      4.9032000000      3.9724000000 
  C88           4.7789000000      7.4282000000     -0.4320000000 
  C89           4.8069000000      6.4521000000     -1.3461000000 
  C90           4.0668000000      5.1954000000     -1.1101000000 
  C91           3.3472000000      5.0308000000      0.0137000000 
  C92           3.3373000000      6.1108000000      1.0320000000 
  C93           4.0126000000      7.2468000000      0.8168000000 
  H94           5.3216000000      8.3490000000     -0.6024000000 
  H95           5.3730000000      6.5795000000     -2.2597000000 
  H96           4.1220000000      4.4109000000     -1.8546000000 
  H97           2.7943000000      5.9928000000      1.9583000000 
  H98           4.0038000000      8.0331000000      1.5606000000 
  O99          -1.9027000000     -0.0412000000     -0.1603000000 
  O100         -0.2205000000      1.7919000000      0.8028000000 
  P101         -0.4524000000      0.1930000000      0.5545000000 
  O102         -0.3363000000     -0.4365000000      1.9070000000 
  N103          3.5367000000     -2.6521000000     -0.5384000000 
  H104          2.9002000000     -2.2957000000     -1.2848000000 
  C105          3.2349000000     -2.1595000000      0.7019000000 
  C106          5.9015000000     -1.0886000000      3.8576000000 
  C107          4.6205000000     -0.5479000000      3.7730000000 
  C108          3.7639000000     -0.9522000000      2.7507000000 
  C109          4.1761000000     -1.9025000000      1.7962000000 
  C110          5.4674000000     -2.4531000000      1.9020000000 
  C111          6.3182000000     -2.0402000000      2.9204000000 
  H112          6.5776000000     -0.7687000000      4.6448000000 
  H113          4.2896000000      0.1970000000      4.4898000000 
  H114          2.7762000000     -0.5140000000      2.6645000000 
  H115          5.8084000000     -3.1948000000      1.1927000000 
  H116          7.3181000000     -2.4585000000      2.9805000000 
  H117          2.4908000000     -1.3737000000      0.5783000000 
  N118          0.6363000000     -0.2786000000     -0.5695000000 
  S119          0.4168000000     -1.2428000000     -1.8025000000 
  O120         -0.5744000000     -2.3154000000     -1.6334000000 
  O121          1.7511000000     -1.6438000000     -2.3274000000 
  C122         -0.2054000000     -0.1895000000     -3.2225000000 
  F123         -1.4101000000      0.3291000000     -2.9562000000 
  F124          0.6433000000      0.8180000000     -3.4561000000 
  F125         -0.2980000000     -0.9436000000     -4.3221000000 
  C126          1.6628000000     -3.4093000000      1.5370000000 
  C127          2.3766000000     -4.4525000000      2.1924000000 
  C128          2.3618000000     -4.1822000000      3.5537000000 
  C129          1.5847000000     -3.0207000000      3.7300000000 
  N130          1.1300000000     -2.6045000000      2.5398000000 
  H131          1.1582000000     -3.4761000000      0.5828000000 
  H132          2.8849000000     -5.2554000000      1.6815000000 
  H133          2.8561000000     -4.7332000000      4.3406000000 
  H134          1.3440000000     -2.4851000000      4.6380000000 
  H135          0.5216000000     -1.7771000000      2.3537000000 
  S136          4.3797000000     -4.0415000000     -1.0514000000 
  O137          5.4746000000     -3.6327000000     -1.9291000000 
  O138          4.6470000000     -4.8856000000      0.1160000000 
  C139          1.0898000000     -5.8015000000     -3.5809000000 
  C140          0.9405000000     -5.5032000000     -2.2232000000 
  N141          1.9336000000     -5.0048000000     -1.4808000000 
  C142          3.0874000000     -4.7779000000     -2.0954000000 
  C143          3.3609000000     -5.0276000000     -3.4350000000 
  C144          2.3185000000     -5.5659000000     -4.1929000000 
  H145          0.2514000000     -6.1994000000     -4.1424000000 
  H146         -0.0084000000     -5.6566000000     -1.7177000000 
  H147          4.3320000000     -4.7942000000     -3.8539000000 
  H148          2.4641000000     -5.7816000000     -5.2466000000 
   
  principal moments of inertia:
        amu*angstrom^2:    21307.45083    24871.47679    31994.68802
                g*cm^2: 3.53818501E-36 4.13000537E-36 5.31284228E-36
   
  rotational constants:
               cm^(-1):      0.00079116      0.00067779      0.00052689
                   GHz:      0.02371842      0.02031962      0.01579572
   
  Molecular weight:    1308.28 amu
   
  Stoichiometry: Si2C73PN4H56S2O7F3
[running at reduced cpu priority]
  Molecular Point Group: C1      
  Point Group used: C1
  
  nuclear repulsion energy.......   20817.857352217 hartrees
 
 Non-default options chosen:
   SCF calculation type: DFT(m06-2x)                 
   DFT=M06-2X
   Solvation energy will be computed using PBF
     -solute cavity energy will not be included
     -surface area terms will not be included
   Highest accuracy cutoffs used in SCF
   Solvent: other                                                           
   Internal dielectric constant:    1.000
   Continuum dielectric constant:   2.380
   Solvent probe molecule radius:   2.760
  
 Temporary integer options set:
     73=  2
  
  atom       vdw   vdw2    cov     mass  grid  daf  charge   basis
  C1        1.949  1.900  0.770   12.000    Y    Y      Y    6-31g**
  C2        1.949  1.900  0.770   12.000    Y    Y      Y    6-31g**
  C3        1.949  1.900  0.770   12.000    Y    Y      Y    6-31g**
  C4        1.949  1.900  0.770   12.000    Y    Y      Y    6-31g**
  H5        1.597  1.150  0.320    1.008    Y    Y      Y    6-31g**
  C6        1.949  1.900  0.770   12.000    Y    Y      Y    6-31g**
  C7        1.949  1.900  0.770   12.000    Y    Y      Y    6-31g**
  C8        1.949  1.900  0.770   12.000    Y    Y      Y    6-31g**
  C9        1.949  1.900  0.770   12.000    Y    Y      Y    6-31g**
  H10       1.597  1.150  0.320    1.008    Y    Y      Y    6-31g**
  C11       1.949  1.900  0.770   12.000    Y    Y      Y    6-31g**
  C12       1.949  1.900  0.770   12.000    Y    Y      Y    6-31g**
  C13       1.949  1.900  0.770   12.000    Y    Y      Y    6-31g**
  C14       1.949  1.900  0.770   12.000    Y    Y      Y    6-31g**
  C15       1.949  1.900  0.770   12.000    Y    Y      Y    6-31g**
  C16       1.949  1.900  0.770   12.000    Y    Y      Y    6-31g**
  H17       1.597  1.150  0.320    1.008    Y    Y      Y    6-31g**
  H18       1.597  1.150  0.320    1.008    Y    Y      Y    6-31g**
  H19       1.597  1.150  0.320    1.008    Y    Y      Y    6-31g**
  H20       1.597  1.150  0.320    1.008    Y    Y      Y    6-31g**
  C21       1.949  1.900  0.770   12.000    Y    Y      Y    6-31g**
  C22       1.949  1.900  0.770   12.000    Y    Y      Y    6-31g**
  C23       1.949  1.900  0.770   12.000    Y    Y      Y    6-31g**
  C24       1.949  1.900  0.770   12.000    Y    Y      Y    6-31g**
  C25       1.949  1.900  0.770   12.000    Y    Y      Y    6-31g**
  C26       1.949  1.900  0.770   12.000    Y    Y      Y    6-31g**
  H27       1.597  1.150  0.320    1.008    Y    Y      Y    6-31g**
  H28       1.597  1.150  0.320    1.008    Y    Y      Y    6-31g**
  H29       1.597  1.150  0.320    1.008    Y    Y      Y    6-31g**
  H30       1.597  1.150  0.320    1.008    Y    Y      Y    6-31g**
  Si31      2.217  2.147  1.110   27.977    Y    Y      Y    6-31g**
  Si32      2.217  2.147  1.110   27.977    Y    Y      Y    6-31g**
  C33       1.949  1.900  0.770   12.000    Y    Y      Y    6-31g**
  C34       1.949  1.900  0.770   12.000    Y    Y      Y    6-31g**
  C35       1.949  1.900  0.770   12.000    Y    Y      Y    6-31g**
  C36       1.949  1.900  0.770   12.000    Y    Y      Y    6-31g**
  C37       1.949  1.900  0.770   12.000    Y    Y      Y    6-31g**
  C38       1.949  1.900  0.770   12.000    Y    Y      Y    6-31g**
  H39       1.597  1.150  0.320    1.008    Y    Y      Y    6-31g**
  H40       1.597  1.150  0.320    1.008    Y    Y      Y    6-31g**
  H41       1.597  1.150  0.320    1.008    Y    Y      Y    6-31g**
  H42       1.597  1.150  0.320    1.008    Y    Y      Y    6-31g**
  H43       1.597  1.150  0.320    1.008    Y    Y      Y    6-31g**
  C44       1.949  1.900  0.770   12.000    Y    Y      Y    6-31g**
  C45       1.949  1.900  0.770   12.000    Y    Y      Y    6-31g**
  C46       1.949  1.900  0.770   12.000    Y    Y      Y    6-31g**
  C47       1.949  1.900  0.770   12.000    Y    Y      Y    6-31g**
  C48       1.949  1.900  0.770   12.000    Y    Y      Y    6-31g**
  C49       1.949  1.900  0.770   12.000    Y    Y      Y    6-31g**
  H50       1.597  1.150  0.320    1.008    Y    Y      Y    6-31g**
  H51       1.597  1.150  0.320    1.008    Y    Y      Y    6-31g**
  H52       1.597  1.150  0.320    1.008    Y    Y      Y    6-31g**
  H53       1.597  1.150  0.320    1.008    Y    Y      Y    6-31g**
  H54       1.597  1.150  0.320    1.008    Y    Y      Y    6-31g**
  C55       1.949  1.900  0.770   12.000    Y    Y      Y    6-31g**
  C56       1.949  1.900  0.770   12.000    Y    Y      Y    6-31g**
  C57       1.949  1.900  0.770   12.000    Y    Y      Y    6-31g**
  C58       1.949  1.900  0.770   12.000    Y    Y      Y    6-31g**
  C59       1.949  1.900  0.770   12.000    Y    Y      Y    6-31g**
  C60       1.949  1.900  0.770   12.000    Y    Y      Y    6-31g**
  H61       1.597  1.150  0.320    1.008    Y    Y      Y    6-31g**
  H62       1.597  1.150  0.320    1.008    Y    Y      Y    6-31g**
  H63       1.597  1.150  0.320    1.008    Y    Y      Y    6-31g**
  H64       1.597  1.150  0.320    1.008    Y    Y      Y    6-31g**
  H65       1.597  1.150  0.320    1.008    Y    Y      Y    6-31g**
  C66       1.949  1.900  0.770   12.000    Y    Y      Y    6-31g**
  C67       1.949  1.900  0.770   12.000    Y    Y      Y    6-31g**
  C68       1.949  1.900  0.770   12.000    Y    Y      Y    6-31g**
  C69       1.949  1.900  0.770   12.000    Y    Y      Y    6-31g**
  C70       1.949  1.900  0.770   12.000    Y    Y      Y    6-31g**
  C71       1.949  1.900  0.770   12.000    Y    Y      Y    6-31g**
  H72       1.597  1.150  0.320    1.008    Y    Y      Y    6-31g**
  H73       1.597  1.150  0.320    1.008    Y    Y      Y    6-31g**
  H74       1.597  1.150  0.320    1.008    Y    Y      Y    6-31g**
  H75       1.597  1.150  0.320    1.008    Y    Y      Y    6-31g**
  H76       1.597  1.150  0.320    1.008    Y    Y      Y    6-31g**
  C77       1.949  1.900  0.770   12.000    Y    Y      Y    6-31g**
  C78       1.949  1.900  0.770   12.000    Y    Y      Y    6-31g**
  C79       1.949  1.900  0.770   12.000    Y    Y      Y    6-31g**
  C80       1.949  1.900  0.770   12.000    Y    Y      Y    6-31g**
  C81       1.949  1.900  0.770   12.000    Y    Y      Y    6-31g**
  C82       1.949  1.900  0.770   12.000    Y    Y      Y    6-31g**
  H83       1.597  1.150  0.320    1.008    Y    Y      Y    6-31g**
  H84       1.597  1.150  0.320    1.008    Y    Y      Y    6-31g**
  H85       1.597  1.150  0.320    1.008    Y    Y      Y    6-31g**
  H86       1.597  1.150  0.320    1.008    Y    Y      Y    6-31g**
  H87       1.597  1.150  0.320    1.008    Y    Y      Y    6-31g**
  C88       1.949  1.900  0.770   12.000    Y    Y      Y    6-31g**
  C89       1.949  1.900  0.770   12.000    Y    Y      Y    6-31g**
  C90       1.949  1.900  0.770   12.000    Y    Y      Y    6-31g**
  C91       1.949  1.900  0.770   12.000    Y    Y      Y    6-31g**
  C92       1.949  1.900  0.770   12.000    Y    Y      Y    6-31g**
  C93       1.949  1.900  0.770   12.000    Y    Y      Y    6-31g**
  H94       1.597  1.150  0.320    1.008    Y    Y      Y    6-31g**
  H95       1.597  1.150  0.320    1.008    Y    Y      Y    6-31g**
  H96       1.597  1.150  0.320    1.008    Y    Y      Y    6-31g**
  H97       1.597  1.150  0.320    1.008    Y    Y      Y    6-31g**
  H98       1.597  1.150  0.320    1.008    Y    Y      Y    6-31g**
  O99       1.702  1.600  0.730   15.995    Y    Y      Y    6-31g**
  O100      1.702  1.600  0.730   15.995    Y    Y      Y    6-31g**
  P101      2.147  2.074  1.060   30.974    Y    Y      Y    6-31g**
  O102      1.702  1.600  0.730   15.995    Y    Y      Y    6-31g**
  N103      1.831  1.600  0.750   14.003    Y    Y      Y    6-31g**
  H104      1.597  1.150  0.320    1.008    Y    Y      Y    6-31g**
  C105      1.949  1.900  0.770   12.000    Y    Y      Y    6-31g**
  C106      1.949  1.900  0.770   12.000    Y    Y      Y    6-31g**
  C107      1.949  1.900  0.770   12.000    Y    Y      Y    6-31g**
  C108      1.949  1.900  0.770   12.000    Y    Y      Y    6-31g**
  C109      1.949  1.900  0.770   12.000    Y    Y      Y    6-31g**
  C110      1.949  1.900  0.770   12.000    Y    Y      Y    6-31g**
  C111      1.949  1.900  0.770   12.000    Y    Y      Y    6-31g**
  H112      1.597  1.150  0.320    1.008    Y    Y      Y    6-31g**
  H113      1.597  1.150  0.320    1.008    Y    Y      Y    6-31g**
  H114      1.597  1.150  0.320    1.008    Y    Y      Y    6-31g**
  H115      1.597  1.150  0.320    1.008    Y    Y      Y    6-31g**
  H116      1.597  1.150  0.320    1.008    Y    Y      Y    6-31g**
  H117      1.597  1.150  0.320    1.008    Y    Y      Y    6-31g**
  N118      1.831  1.600  0.750   14.003    Y    Y      Y    6-31g**
  S119      2.070  1.900  1.020   31.972    Y    Y      Y    6-31g**
  O120      1.702  1.600  0.730   15.995    Y    Y      Y    6-31g**
  O121      1.702  1.600  0.730   15.995    Y    Y      Y    6-31g**
  C122      1.949  1.900  0.770   12.000    Y    Y      Y    6-31g**
  F123      1.736  1.682  0.720   18.998    Y    Y      Y    6-31g**
  F124      1.736  1.682  0.720   18.998    Y    Y      Y    6-31g**
  F125      1.736  1.682  0.720   18.998    Y    Y      Y    6-31g**
  C126      1.949  1.900  0.770   12.000    Y    Y      Y    6-31g**
  C127      1.949  1.900  0.770   12.000    Y    Y      Y    6-31g**
  C128      1.949  1.900  0.770   12.000    Y    Y      Y    6-31g**
  C129      1.949  1.900  0.770   12.000    Y    Y      Y    6-31g**
  N130      1.831  1.600  0.750   14.003    Y    Y      Y    6-31g**
  H131      1.597  1.150  0.320    1.008    Y    Y      Y    6-31g**
  H132      1.597  1.150  0.320    1.008    Y    Y      Y    6-31g**
  H133      1.597  1.150  0.320    1.008    Y    Y      Y    6-31g**
  H134      1.597  1.150  0.320    1.008    Y    Y      Y    6-31g**
  H135      1.597  1.150  0.320    1.008    Y    Y      Y    6-31g**
  S136      2.070  1.900  1.020   31.972    Y    Y      Y    6-31g**
  O137      1.702  1.600  0.730   15.995    Y    Y      Y    6-31g**
  O138      1.702  1.600  0.730   15.995    Y    Y      Y    6-31g**
  C139      1.949  1.900  0.770   12.000    Y    Y      Y    6-31g**
  C140      1.949  1.900  0.770   12.000    Y    Y      Y    6-31g**
  N141      1.831  1.600  0.750   14.003    Y    Y      Y    6-31g**
  C142      1.949  1.900  0.770   12.000    Y    Y      Y    6-31g**
  C143      1.949  1.900  0.770   12.000    Y    Y      Y    6-31g**
  C144      1.949  1.900  0.770   12.000    Y    Y      Y    6-31g**
  H145      1.597  1.150  0.320    1.008    Y    Y      Y    6-31g**
  H146      1.597  1.150  0.320    1.008    Y    Y      Y    6-31g**
  H147      1.597  1.150  0.320    1.008    Y    Y      Y    6-31g**
  H148      1.597  1.150  0.320    1.008    Y    Y      Y    6-31g**
  
  Peak memory usage:    768 Mb
  
  end of program pre
   
 Time(pre)  user:        0.9  user+sys:        0.9  wallclock:        1.5
  
  start of program onee
  
  smallest eigenvalue of S:    2.192E-04
  number of canonical orbitals.....         1674
  Peak memory usage:    900 Mb
  
  end of program onee
   
 Time(onee)  user:       17.9  user+sys:       17.9  wallclock:       25.3
  
  start of program hfig
  
  initial wavefunction generated automatically from atomic wavefunctions
 
  Irreducible     Total no   No of occupied orbitals 
  representation  orbitals   Shell_1  Shell_2    ...
  No Symm         1674        340
  ------------------------
  Orbital occupation/shell    1.000
 
  Peak memory usage:    833 Mb
  
  end of program hfig
   
 Time(hfig)  user:       34.1  user+sys:       34.1  wallclock:       62.9
  
  start of program probe
  
  Peak memory usage:    826 Mb
  
  end of program probe
   
 Time(probe)  user:       24.1  user+sys:       24.1  wallclock:       42.7
  
  start of program grid
  
   grid     grid set  grid #  grid sym
  ------    --------  ------  --------
  coarse        0        0        1
  medium        2        1        1
  fine          0        0        1
  ultrafine     4        2        1
  charge       -1        3        1
  gradient      4        2        1
  density       0        0        1
  DFT-fine    -13        4        1
  DFT-med.    -13        4        1
  DFT-grad    -13        4        1
  DFT-der2      0        0        1
  DFT-cphf      0        0        1
  LMP2-enrg     4        2        1
  LMP2-grad     2        1        1
  DFT-cphf2     0        0        1
  PBF-dens      0        0        1
  plotting      0        0        1
  Rel-grad    -17        0        1
  
  number of gridpoints: 
     atom        C1       C2       C3       C4       H5       C6       C7
  grid # 1      100       95      101       97      111       92      100
  grid # 2      358      338      358      358      427      335      360
  grid # 3       13       27       13       20      182       18        9
  grid # 4    48124    48124    48124    48124    48426    48124    48124
   
  number of gridpoints: 
     atom        C8       C9      H10      C11      C12      C13      C14
  grid # 1       95      100      111      102      102       98       94
  grid # 2      355      354      422      360      366      339      338
  grid # 3       14        6      172       29       42       47       47
  grid # 4    48124    48124    48426    48124    48124    48124    48124
   
  number of gridpoints: 
     atom       C15      C16      H17      H18      H19      H20      C21
  grid # 1       95       96      118      118      118      112      101
  grid # 2      338      338      443      450      448      433      365
  grid # 3       38       30      362      418      407      220       24
  grid # 4    48124    48124    48426    48426    48426    48426    48124
   
  number of gridpoints: 
     atom       C22      C23      C24      C25      C26      H27      H28
  grid # 1      101       96       94       94       95      111      118
  grid # 2      356      334      336      335      336      433      451
  grid # 3        6       22       34       41       34      228      416
  grid # 4    48124    48124    48124    48124    48124    48426    48426
   
  number of gridpoints: 
     atom       H29      H30     Si31     Si32      C33      C34      C35
  grid # 1      118      118      474      476       94       93       92
  grid # 2      453      445      474      476      335      334      332
  grid # 3      423      355       11        9       31       28       11
  grid # 4    48426    48426    38542    38542    48124    48124    48124
   
  number of gridpoints: 
     atom       C36      C37      C38      H39      H40      H41      H42
  grid # 1      101       96       93      117      117      112      109
  grid # 2      357      336      334      451      451      430      420
  grid # 3        9       16       24      372      387      234      157
  grid # 4    48124    48124    48124    48426    48426    48426    48426
   
  number of gridpoints: 
     atom       H43      C44      C45      C46      C47      C48      C49
  grid # 1      115       94       93       92      100       97       94
  grid # 2      443      332      332      333      360      337      333
  grid # 3      313       30       28       15       19       24       30
  grid # 4    48426    48124    48124    48124    48124    48124    48124
   
  number of gridpoints: 
     atom       H50      H51      H52      H53      H54      C55      C56
  grid # 1      113      117      110      110      115       94       94
  grid # 2      444      451      426      420      443      336      335
  grid # 3      302      375      190      168      317       44       44
  grid # 4    48426    48426    48426    48426    48426    48124    48124
   
  number of gridpoints: 
     atom       C57      C58      C59      C60      H61      H62      H63
  grid # 1       92      100       97       93      118      118      112
  grid # 2      336      360      335      337      453      452      435
  grid # 3       27       19       31       38      424      419      254
  grid # 4    48124    48124    48124    48124    48426    48426    48426
   
  number of gridpoints: 
     atom       H64      H65      C66      C67      C68      C69      C70
  grid # 1      111      118       93       93       92       99       94
  grid # 2      425      452      333      330      332      357      335
  grid # 3      207      417       27       22       15       11       17
  grid # 4    48426    48426    48124    48124    48124    48124    48124
   
  number of gridpoints: 
     atom       C71      H72      H73      H74      H75      H76      C77
  grid # 1       93      116      113      106      112      116       93
  grid # 2      334      442      432      419      431      447      335
  grid # 3       25      309      241      110      246      338       38
  grid # 4    48124    48426    48426    48426    48426    48426    48124
   
  number of gridpoints: 
     atom       C78      C79      C80      C81      C82      H83      H84
  grid # 1       93       93       99       93       92      118      113
  grid # 2      335      334      357      330      334      452      440
  grid # 3       36       25        8       12       29      404      282
  grid # 4    48124    48124    48124    48124    48124    48426    48426
   
  number of gridpoints: 
     atom       H85      H86      H87      C88      C89      C90      C91
  grid # 1      104      111      118       94       94       92      101
  grid # 2      411      432      450      336      335      337      361
  grid # 3       72      219      402       48       44       22       20
  grid # 4    48426    48426    48426    48124    48124    48124    48124
   
  number of gridpoints: 
     atom       C92      C93      H94      H95      H96      H97      H98
  grid # 1       97       94      118      118      112      112      118
  grid # 2      340      337      453      452      429      432      453
  grid # 3       38       47      424      416      221      228      423
  grid # 4    48124    48124    48426    48426    48426    48426    48426
   
  number of gridpoints: 
     atom       O99     O100     P101     O102     N103     H104     C105
  grid # 1      112      112      452      117       99       97       92
  grid # 2      431      438      452      467      352      388      325
  grid # 3       20       58        7       74       12       39        6
  grid # 4    47716    47716    38640    47716    47928    48426    48124
   
  number of gridpoints: 
     atom      C106     C107     C108     C109     C110     C111     H112
  grid # 1       96       95       95       97       95       95      117
  grid # 2      331      331      330      355      334      332      450
  grid # 3       27       26       12       10       22       26      405
  grid # 4    48124    48124    48124    48124    48124    48124    48426
   
  number of gridpoints: 
     atom      H113     H114     H115     H116     H117     N118     S119
  grid # 1      111      106      110      117      101      108      432
  grid # 2      435      409      427      449      399      399      432
  grid # 3      237       82      190      401       46       17        6
  grid # 4    48426    48426    48426    48426    48426    47928    48492
   
  number of gridpoints: 
     atom      O120     O121     C122     F123     F124     F125     C126
  grid # 1      120      117       90      511      522      530       92
  grid # 2      481      455      320      511      522      530      323
  grid # 3      103       78        7       60      145      247        7
  grid # 4    47716    47716    48124    47062    47062    47062    48124
   
  number of gridpoints: 
     atom      C127     C128     C129     N130     H131     H132     H133
  grid # 1       93       93       94       96      106      112      117
  grid # 2      330      329      327      337      419      437      459
  grid # 3       16       18       10        8      109      268      441
  grid # 4    48124    48124    48124    47928    48426    48426    48426
   
  number of gridpoints: 
     atom      H134     H135     S136     O137     O138     C139     C140
  grid # 1      113       99      441      122      120       96       96
  grid # 2      443      398      441      494      485      333      337
  grid # 3      268       65       11      212      169       41       34
  grid # 4    48426    48426    48492    47716    47716    48124    48124
   
  number of gridpoints: 
     atom      N141     C142     C143     C144     H145     H146     H147
  grid # 1      111       98       96       96      118      116      114
  grid # 2      411      357      332      333      449      445      444
  grid # 3       55       27       40       43      379      316      339
  grid # 4    47928    48124    48124    48124    48426    48426    48426
   
  number of gridpoints: 
     atom      H148    total
  grid # 1      118    18379
  grid # 2      453    57870
  grid # 3      429    19208
  grid # 4    48426  7104526
   
  Peak memory usage:    795 Mb
  
  end of program grid
   
 Time(grid)  user:     1124.8  user+sys:     1124.8  wallclock:     2634.3
  
  start of program rwr
  
  Peak memory usage:    814 Mb
  
  end of program rwr
   
 Time(rwr)  user:       70.5  user+sys:       70.5  wallclock:      135.5
  
  start of program scf
  
 number of electrons..........        680
 number of alpha electrons....        340
 number of beta electrons.....        340
 number of orbitals, total....       1674
 number of doubly-occ'd orbs..        340
 number of open shell orbs....          0
 number of occupied orbitals..        340
 number of virtual orbitals...       1334
 number of hamiltonians.......          1
 number of shells.............          1
 SCF type: DFT=M06-2X
 Energy computed with NOPS off.
  
       i  u  d  i  g                   
       t  p  i  c  r                                 RMS    maximum
       e  d  i  u  i                       energy  density   DIIS  
       r  t  s  t  d       total energy    change  change    error 
  
etot    1  N  N  1  U   -5562.76642968926           3.6E-03  1.1E-01
etot    2  N  Y  1  U   -5536.66310379701 -2.6E+01  1.6E-02  1.3E-01
etot    3  N  Y  1  U   -5332.66042493994 -2.0E+02  1.5E-02  3.8E-01
etot    4  N  Y  1  U   -5567.55266017991  2.3E+02  3.7E-03  7.7E-02
etot    5  N  Y  1  U   -5566.12360139761 -1.4E+00  3.1E-03  5.5E-02
etot    6  N  Y  1  U   -5569.15871401142  3.0E+00  1.4E-03  6.2E-02
etot    7  N  Y  1  U   -5575.30948430899  6.2E+00  4.6E-04  2.4E-02
etot    8  N  Y  1  U   -5575.50879168440  2.0E-01  1.7E-04  1.1E-02
etot    9  N  Y  1  U   -5575.55093430594  4.2E-02  5.7E-05  2.5E-03
etot   10  N  Y  1  U   -5575.55609123011  5.2E-03  2.1E-05  8.4E-04
etot   11  N  Y  1  U   -5575.55671323950  6.2E-04  9.8E-06  3.4E-04
etot   12  N  Y  1  U   -5575.55686596907  1.5E-04  5.1E-06  1.7E-04
etot   13  N  N  1  U   -5575.55691450163  4.9E-05  0.0E+00  0.0E+00
  
  
 Energy components, in hartrees:
   (A)  Nuclear repulsion............   20817.85735221664
   (E)  Total one-electron terms.....  -49163.43495623231
   (F)    Electron-nuclear...........  -54699.40790635908
   (H)    Kinetic....................    5535.97295012677
   (I)  Total two-electron terms.....   22770.02068951404
   (J)    Coulomb....................   23421.26671415878
   (K)    Exchange+Correlation.......    -651.24602464474
   (L)  Electronic energy............  -26393.41426671827  (E+I)
   (M)  -V/T.........................       2.00715031752  (-(A+F+I)/H)
   (N)  Total energy.................   -5575.55691450163  (A+L)
   (O)  Gas phase energy.............   -5575.55691450163
  
 SCFE: SCF energy: DFT(m06-2x)     -5575.55691450163 hartrees   iterations:  13
  
 
 HOMO energy:    -0.25268
 LUMO energy:    -0.06243
 
  Orbital energies (hartrees): 
   -90.17778   -90.15501   -78.21002   -67.00633   -67.00595   -25.29134
   -25.28991   -25.28944   -19.69125   -19.68773   -19.65671   -19.65496
   -19.63370   -19.62656   -19.60216   -14.81453   -14.80924   -14.79709
   -14.74465   -10.80655   -10.65909   -10.63644   -10.62578   -10.62045
   -10.61311   -10.60555   -10.59718   -10.59296   -10.59151   -10.58789
   -10.58067   -10.57143   -10.57038   -10.56960   -10.56937   -10.56887
   -10.56600   -10.56599   -10.56480   -10.56365   -10.56106   -10.56042
   -10.56036   -10.55822   -10.55592   -10.55326   -10.55313   -10.55285
   -10.55207   -10.55204   -10.55195   -10.55087   -10.55076   -10.54997
   -10.54881   -10.54836   -10.54773   -10.54759   -10.54742   -10.54647
   -10.54556   -10.54544   -10.54530   -10.54512   -10.54496   -10.54449
   -10.54415   -10.54375   -10.54366   -10.54324   -10.54312   -10.54204
   -10.54166   -10.54150   -10.54131   -10.54067   -10.53971   -10.53897
   -10.53880   -10.53854   -10.53846   -10.53838   -10.53789   -10.53730
   -10.53646   -10.53472   -10.53235   -10.53051   -10.52799   -10.52747
   -10.52476   -10.52424    -8.48782    -8.46352    -6.98921    -6.41014
    -6.40902    -6.40829    -6.38531    -6.38514    -6.38483    -5.53726
    -5.53711    -5.10779    -5.10668    -5.10503    -3.84710    -3.84695
    -3.84679    -3.84649    -3.84646    -3.84642    -1.45693    -1.36603
    -1.36479    -1.24958    -1.22927    -1.21804    -1.18600    -1.13661
    -1.10607    -1.10129    -1.08888    -1.08476    -1.06346    -0.98912
    -0.98013    -0.97282    -0.96613    -0.94202    -0.94134    -0.93723
    -0.93506    -0.93245    -0.93243    -0.93126    -0.92095    -0.91033
    -0.90369    -0.88918    -0.88408    -0.87981    -0.85390    -0.85284
    -0.84328    -0.83965    -0.83553    -0.83385    -0.83313    -0.83278
    -0.83040    -0.82958    -0.82677    -0.82579    -0.82545    -0.82444
    -0.82421    -0.82204    -0.82110    -0.81923    -0.81752    -0.81316
    -0.80009    -0.76062    -0.75642    -0.74452    -0.73102    -0.71618
    -0.70877    -0.70398    -0.70294    -0.69634    -0.68927    -0.68396
    -0.68113    -0.67833    -0.67769    -0.67619    -0.67533    -0.67497
    -0.67047    -0.66978    -0.66895    -0.66717    -0.66349    -0.66317
    -0.66014    -0.65934    -0.65761    -0.65546    -0.65463    -0.65254
    -0.65013    -0.63899    -0.63646    -0.62534    -0.61510    -0.61234
    -0.60574    -0.60118    -0.59830    -0.58457    -0.58126    -0.58103
    -0.57878    -0.57531    -0.57497    -0.57396    -0.57258    -0.57244
    -0.57107    -0.56299    -0.55821    -0.55796    -0.54952    -0.54895
    -0.54669    -0.54519    -0.53827    -0.53722    -0.53635    -0.53196
    -0.52926    -0.52689    -0.52311    -0.52038    -0.51969    -0.51586
    -0.51554    -0.51479    -0.51264    -0.51053    -0.51041    -0.50944
    -0.50922    -0.50666    -0.50385    -0.50125    -0.50073    -0.49888
    -0.49850    -0.49793    -0.49785    -0.49481    -0.49457    -0.49443
    -0.49363    -0.49161    -0.49090    -0.49076    -0.48903    -0.48823
    -0.48235    -0.48092    -0.47985    -0.47722    -0.47593    -0.47396
    -0.47207    -0.47090    -0.46814    -0.46793    -0.46357    -0.46065
    -0.45665    -0.45263    -0.45047    -0.44994    -0.44657    -0.44564
    -0.44199    -0.44089    -0.43576    -0.43337    -0.43099    -0.43009
    -0.42438    -0.42401    -0.42242    -0.42067    -0.41838    -0.41763
    -0.41532    -0.41412    -0.41240    -0.41134    -0.40801    -0.40404
    -0.40205    -0.40123    -0.39765    -0.39670    -0.39299    -0.39102
    -0.38901    -0.38796    -0.38745    -0.38497    -0.38426    -0.38269
    -0.38170    -0.37983    -0.37920    -0.37744    -0.37491    -0.36869
    -0.36543    -0.36010    -0.35340    -0.35090    -0.35051    -0.34429
    -0.34374    -0.33925    -0.33837    -0.33555    -0.33460    -0.33225
    -0.32495    -0.32452    -0.32435    -0.31583    -0.31213    -0.30065
    -0.29997    -0.29929    -0.29788    -0.29444    -0.29170    -0.29107
    -0.28988    -0.28852    -0.28767    -0.28749    -0.28570    -0.28506
    -0.28002    -0.27609    -0.27242    -0.25268    -0.06243    -0.02629
    -0.01813    -0.00573     0.00072     0.00982     0.01646     0.01746
     0.01945     0.02711
 
  Peak memory usage:   1028 Mb
  
  end of program scf
   
 Time(scf)  user:    33779.9  user+sys:    33779.9  wallclock:   136212.2
  
  start of program ch
  
  gridpoints used for charge fit        16675
    out of a possible maximum of        19208
  
   Electrostatic potential fitting constrained to reproduce
     total charge:                yes
     dipole moment:               no 
     traceless quadrupole moment: no 
     traceless octapole moment:   no 
  
  Atomic charges from electrostatic potential: 
   
 Atom       C1           C2           C3           C4           H5      
 Charge   -0.21584     -0.46282      0.20628      0.07789      0.20535
   
 Atom       C6           C7           C8           C9           H10     
 Charge   -0.32703     -0.02402      0.01015      0.16146      0.16219
   
 Atom       C11          C12          C13          C14          C15     
 Charge    0.10496      0.22828     -0.22429     -0.12407     -0.14905
   
 Atom       C16          H17          H18          H19          H20     
 Charge   -0.14924      0.14432      0.13343      0.14062      0.11162
   
 Atom       C21          C22          C23          C24          C25     
 Charge    0.18976      0.04652     -0.21199     -0.13610     -0.11250
   
 Atom       C26          H27          H28          H29          H30     
 Charge   -0.23837      0.15074      0.13967      0.13242      0.15200
   
 Atom       Si31         Si32         C33          C34          C35     
 Charge   -0.13150      0.18662     -0.18549     -0.14183     -0.11290
   
 Atom       C36          C37          C38          H39          H40     
 Charge    0.23798     -0.27668     -0.04486      0.14017      0.12265
   
 Atom       H41          H42          H43          C44          C45     
 Charge    0.08891      0.13144      0.10801     -0.13842     -0.14706
   
 Atom       C46          C47          C48          C49          H50     
 Charge   -0.13637      0.11715     -0.20974     -0.10604      0.11447
   
 Atom       H51          H52          H53          H54          C55     
 Charge    0.13114      0.12347      0.14108      0.11612     -0.15646
   
 Atom       C56          C57          C58          C59          C60     
 Charge   -0.14842     -0.12011      0.14100     -0.25883     -0.06783
   
 Atom       H61          H62          H63          H64          H65     
 Charge    0.13372      0.13732      0.08637      0.14897      0.11681
   
 Atom       C66          C67          C68          C69          C70     
 Charge   -0.17694     -0.07999     -0.11414      0.03185     -0.24294
   
 Atom       C71          H72          H73          H74          H75     
 Charge   -0.05284      0.13095      0.09337      0.11142      0.13464
   
 Atom       H76          C77          C78          C79          C80     
 Charge    0.11077     -0.08875     -0.18320     -0.09624     -0.00267
   
 Atom       C81          C82          H83          H84          H85     
 Charge   -0.03625     -0.19021      0.12608      0.12619      0.08907
   
 Atom       H86          H87          C88          C89          C90     
 Charge    0.09481      0.13490     -0.11551     -0.18248     -0.08059
   
 Atom       C91          C92          C93          H94          H95     
 Charge    0.00500     -0.13314     -0.13381      0.12775      0.13890
   
 Atom       H96          H97          H98          O99          O100    
 Charge    0.10591      0.08921      0.13226     -0.29851     -0.23598
   
 Atom       P101         O102         N103         H104         C105    
 Charge    0.96040     -0.58886     -0.35299      0.39950     -0.07081
   
 Atom       C106         C107         C108         C109         C110    
 Charge   -0.12486     -0.14307     -0.21431      0.51603     -0.32330
   
 Atom       C111         H112         H113         H114         H115    
 Charge   -0.13638      0.14344      0.14366      0.09153      0.21477
   
 Atom       H116         H117         N118         S119         O120    
 Charge    0.15158      0.10612     -0.56664      0.70809     -0.42820
   
 Atom       O121         C122         F123         F124         F125    
 Charge   -0.52645      0.37898     -0.08685     -0.12043     -0.12818
   
 Atom       C126         C127         C128         C129         N130    
 Charge   -0.23885     -0.10274     -0.25996     -0.10208      0.15630
   
 Atom       H131         H132         H133         H134         H135    
 Charge    0.16953      0.16792      0.18301      0.16059      0.22509
   
 Atom       S136         O137         O138         C139         C140    
 Charge    0.60441     -0.40980     -0.40882     -0.33877      0.29176
   
 Atom       N141         C142         C143         C144         H145    
 Charge   -0.47789      0.46265     -0.37452      0.10326      0.17836
   
 Atom       H146         H147         H148    
 Charge    0.08055      0.20129      0.12383
  
  sum of atomic charges:     0.000000
   
 RMS Error   9.65E-04 hartrees
 
  Peak memory usage:    816 Mb
  
  end of program ch
   
 Time(ch)  user:       18.4  user+sys:       18.4  wallclock:       84.5
  
  start of program post
  
  Writing input files for PBF
  Peak memory usage:    759 Mb
  
  end of program post
   
 Time(post)  user:        0.8  user+sys:        0.8  wallclock:        3.8

  start of program pbf

Pbf Version 4.10

Molecular surface area:      866.89859   [A2]
Reaction field energy:       -16.56542   [kT]
  Peak memory usage: 721 Mb

  end of program pbf

 Time(pbf)  user:        9.1  user+sys:        9.2  wallclock:       30.8
  
  start of program solv
  
   number of surface charges from PBF   13066
   sum of surface charges     -0.00026
   
  nuclear repulsion energy.......   20817.857352217 hartrees
  Peak memory usage:    894 Mb
  
  end of program solv
   
 Time(solv)  user:       34.8  user+sys:       34.8  wallclock:      135.1
  
  start of program scf
  
 Energy computed with NOPS off.
  
       i  u  d  i  g                   
       t  p  i  c  r                                 RMS    maximum
       e  d  i  u  i                       energy  density   DIIS  
       r  t  s  t  d       total energy    change  change    error 
  
etot    1  N  N  1  U   -5575.59201917029           4.8E-05  7.0E-04
etot    2  N  Y  1  U   -5575.59272038497  7.0E-04  1.6E-05  5.8E-04
etot    3  N  Y  1  U   -5575.59291471469  1.9E-04  5.5E-06  3.5E-04
etot    4  N  Y  1  U   -5575.59296678357  5.2E-05  2.3E-06  7.6E-05
etot    5  N  N  1  U   -5575.59297288836  6.1E-06  0.0E+00  0.0E+00
  
  
 Energy components, in hartrees:
   (A)  Total zero-electron terms....   20820.82552294751
   (B)    Nuclear-nuclear............   20817.85735221664
   (C)    Nuclear-solvent............       2.96817073087
   (E)  Total one-electron terms.....  -49167.99413150949
   (F)    Electron-nuclear...........  -54701.01278375484
   (G)    Electron-solvent...........      -3.00517324879
   (H)    Kinetic....................    5536.02382549414
   (I)  Total two-electron terms.....   22771.57563567362
   (J)    Coulomb....................   23422.84212798142
   (K)    Exchange+Correlation.......    -651.26649230780
   (L)  Electronic energy............  -26396.41849583587  (E+I)
   (N)  Total quantum mech. energy...   -5575.59297288836  (A+L)
   (O)  Gas phase energy.............   -5575.55691450163
   (P)  Solution phase energy........   -5575.57447162940  (Q+R+S)
   (Q)    Total solute energy........   -5575.55597037045  (N-C-G)
   (R)    Total solvent energy.......      -0.01850125896  (C/2+G/2)
   (S)    Solute cavity energy.......       0.00000000000
   (U)  Reorganization energy........       0.00094413119  (Q-O)
   (V)  Solvation energy.............      -0.01755712777  (P-O)
  
 SCFE:  Solution phase energy: DFT(m06-2x)      -5575.57447162940 hartrees
        SCF iterations:   5
  
 
 HOMO energy:    -0.25476
 LUMO energy:    -0.06343
 
  Orbital energies (hartrees): 
   -90.18343   -90.16067   -78.21342   -67.00899   -67.00889   -25.29529
   -25.29519   -25.29463   -19.69411   -19.69034   -19.66268   -19.66048
   -19.63867   -19.63057   -19.60527   -14.82018   -14.80975   -14.79586
   -14.74819   -10.81183   -10.66149   -10.63643   -10.62811   -10.62308
   -10.60971   -10.60450   -10.59228   -10.59185   -10.58993   -10.58260
   -10.58110   -10.57346   -10.57139   -10.57078   -10.57021   -10.56828
   -10.56619   -10.56585   -10.56307   -10.56254   -10.56202   -10.56154
   -10.56059   -10.56051   -10.55747   -10.55376   -10.55344   -10.55302
   -10.55288   -10.55263   -10.55173   -10.55167   -10.55143   -10.55100
   -10.55062   -10.55058   -10.55041   -10.54981   -10.54972   -10.54849
   -10.54782   -10.54766   -10.54764   -10.54751   -10.54661   -10.54646
   -10.54607   -10.54555   -10.54521   -10.54501   -10.54466   -10.54440
   -10.54425   -10.54392   -10.54359   -10.54355   -10.54278   -10.54264
   -10.54203   -10.54166   -10.54126   -10.54082   -10.54047   -10.53989
   -10.53935   -10.53897   -10.53513   -10.53364   -10.53018   -10.53004
   -10.52777   -10.52728    -8.49337    -8.46898    -6.99258    -6.41569
    -6.41465    -6.41378    -6.39079    -6.39061    -6.39032    -5.54004
    -5.53991    -5.11117    -5.11005    -5.10840    -3.84988    -3.84976
    -3.84944    -3.84942    -3.84936    -3.84912    -1.46194    -1.37124
    -1.36956    -1.25537    -1.23267    -1.22237    -1.18884    -1.14277
    -1.11082    -1.10197    -1.08810    -1.08731    -1.06713    -0.99285
    -0.98237    -0.97238    -0.96791    -0.94491    -0.94439    -0.93940
    -0.93780    -0.93615    -0.93522    -0.92729    -0.92265    -0.91198
    -0.90306    -0.89115    -0.88402    -0.87918    -0.85445    -0.85298
    -0.84556    -0.84222    -0.83854    -0.83669    -0.83558    -0.83294
    -0.83235    -0.83220    -0.82940    -0.82866    -0.82836    -0.82740
    -0.82661    -0.82423    -0.82362    -0.82172    -0.82096    -0.81424
    -0.80182    -0.76408    -0.75578    -0.74108    -0.73430    -0.71636
    -0.71104    -0.70565    -0.70223    -0.69850    -0.69187    -0.68803
    -0.68587    -0.68114    -0.67839    -0.67822    -0.67738    -0.67713
    -0.67275    -0.67095    -0.67013    -0.66945    -0.66653    -0.66556
    -0.66254    -0.66067    -0.65911    -0.65756    -0.65651    -0.65393
    -0.65172    -0.64103    -0.63667    -0.62737    -0.61627    -0.61274
    -0.60788    -0.60325    -0.59996    -0.58778    -0.58270    -0.58064
    -0.57980    -0.57742    -0.57607    -0.57573    -0.57484    -0.57428
    -0.57049    -0.56713    -0.56267    -0.56021    -0.55293    -0.55099
    -0.54772    -0.54706    -0.54031    -0.53875    -0.53663    -0.53489
    -0.53191    -0.52905    -0.52611    -0.52370    -0.52211    -0.51745
    -0.51706    -0.51642    -0.51422    -0.51269    -0.51169    -0.51132
    -0.51022    -0.50689    -0.50612    -0.50555    -0.50176    -0.50111
    -0.50047    -0.49841    -0.49718    -0.49668    -0.49628    -0.49591
    -0.49392    -0.49245    -0.49180    -0.49107    -0.49023    -0.49011
    -0.48369    -0.48277    -0.48170    -0.47872    -0.47809    -0.47619
    -0.47493    -0.47336    -0.47037    -0.46565    -0.46416    -0.46041
    -0.45747    -0.45464    -0.45229    -0.45174    -0.44885    -0.44672
    -0.44416    -0.44318    -0.43838    -0.43608    -0.43350    -0.43214
    -0.42776    -0.42630    -0.42498    -0.42224    -0.42126    -0.42007
    -0.41758    -0.41715    -0.41593    -0.41317    -0.41060    -0.40676
    -0.40589    -0.40289    -0.39935    -0.39879    -0.39485    -0.39301
    -0.39281    -0.39104    -0.38892    -0.38745    -0.38653    -0.38555
    -0.38413    -0.38253    -0.38229    -0.38079    -0.37740    -0.36852
    -0.36651    -0.36354    -0.35598    -0.35289    -0.35034    -0.34680
    -0.34246    -0.34149    -0.34085    -0.33782    -0.33729    -0.33569
    -0.32838    -0.32688    -0.32524    -0.31571    -0.31248    -0.30417
    -0.30321    -0.30252    -0.30145    -0.29683    -0.29442    -0.29373
    -0.29289    -0.29154    -0.29102    -0.29073    -0.28841    -0.28794
    -0.28265    -0.27737    -0.27455    -0.25476    -0.06343    -0.02458
    -0.02018    -0.00269    -0.00156     0.00748     0.01383     0.01598
     0.01783     0.02440
 
  Peak memory usage:   1029 Mb
  
  end of program scf
   
 Time(scf)  user:    10447.6  user+sys:    10447.6  wallclock:    43273.5
  
  start of program sole
  
    SCRF                   solvation energy
  iteration          Hartrees            kcal/mol
     0               0.0000000            0.0000
     1              -0.0175571          -11.0173
  
  solvation energy not yet converged... 
  
  Peak memory usage:    813 Mb
  
  end of program sole
   
 Time(sole)  user:        0.1  user+sys:        0.1  wallclock:        0.5
  
  start of program ch
  
  gridpoints used for charge fit        16675
    out of a possible maximum of        16675
  
   Electrostatic potential fitting constrained to reproduce
     total charge:                yes
     dipole moment:               no 
     traceless quadrupole moment: no 
     traceless octapole moment:   no 
  
  Atomic charges from electrostatic potential: 
   
 Atom       C1           C2           C3           C4           H5      
 Charge   -0.21449     -0.49254      0.23340      0.06594      0.21747
   
 Atom       C6           C7           C8           C9           H10     
 Charge   -0.34516     -0.00575      0.00029      0.16298      0.16836
   
 Atom       C11          C12          C13          C14          C15     
 Charge    0.10052      0.23877     -0.23824     -0.12704     -0.15979
   
 Atom       C16          H17          H18          H19          H20     
 Charge   -0.14651      0.15240      0.14181      0.14991      0.11280
   
 Atom       C21          C22          C23          C24          C25     
 Charge    0.19744      0.04210     -0.21346     -0.14313     -0.11768
   
 Atom       C26          H27          H28          H29          H30     
 Charge   -0.24885      0.15216      0.14797      0.14063      0.15980
   
 Atom       Si31         Si32         C33          C34          C35     
 Charge   -0.15528      0.16307     -0.19659     -0.14367     -0.11753
   
 Atom       C36          C37          C38          H39          H40     
 Charge    0.25159     -0.29097     -0.04575      0.14826      0.12996
   
 Atom       H41          H42          H43          C44          C45     
 Charge    0.09102      0.13253      0.11153     -0.14926     -0.15081
   
 Atom       C46          C47          C48          C49          H50     
 Charge   -0.15154      0.12908     -0.21898     -0.11232      0.12406
   
 Atom       H51          H52          H53          H54          C55     
 Charge    0.13843      0.13176      0.14567      0.12161     -0.16163
   
 Atom       C56          C57          C58          C59          C60     
 Charge   -0.15986     -0.11743      0.13773     -0.26702     -0.07425
   
 Atom       H61          H62          H63          H64          H65     
 Charge    0.14179      0.14638      0.08519      0.15552      0.12545
   
 Atom       C66          C67          C68          C69          C70     
 Charge   -0.18657     -0.08601     -0.12113      0.04720     -0.25595
   
 Atom       C71          H72          H73          H74          H75     
 Charge   -0.05275      0.13568      0.09575      0.11293      0.13930
   
 Atom       H76          C77          C78          C79          C80     
 Charge    0.11738     -0.09435     -0.18953     -0.11135      0.00883
   
 Atom       C81          C82          H83          H84          H85     
 Charge   -0.03768     -0.19822      0.13416      0.13344      0.09900
   
 Atom       H86          H87          C88          C89          C90     
 Charge    0.09681      0.14187     -0.12354     -0.18966     -0.08393
   
 Atom       C91          C92          C93          H94          H95     
 Charge    0.00773     -0.13538     -0.14265      0.13648      0.14730
   
 Atom       H96          H97          H98          O99          O100    
 Charge    0.10934      0.08853      0.14109     -0.29284     -0.22771
   
 Atom       P101         O102         N103         H104         C105    
 Charge    0.94584     -0.58405     -0.34475      0.39671     -0.06650
   
 Atom       C106         C107         C108         C109         C110    
 Charge   -0.12956     -0.14410     -0.21365      0.51833     -0.32799
   
 Atom       C111         H112         H113         H114         H115    
 Charge   -0.14134      0.15228      0.14756      0.08531      0.21563
   
 Atom       H116         H117         N118         S119         O120    
 Charge    0.16007      0.10771     -0.56171      0.70953     -0.42321
   
 Atom       O121         C122         F123         F124         F125    
 Charge   -0.53532      0.38039     -0.08327     -0.12234     -0.13104
   
 Atom       C126         C127         C128         C129         N130    
 Charge   -0.22804     -0.11622     -0.26290     -0.10553      0.15992
   
 Atom       H131         H132         H133         H134         H135    
 Charge    0.16173      0.17254      0.19114      0.16960      0.22398
   
 Atom       S136         O137         O138         C139         C140    
 Charge    0.61976     -0.43049     -0.42692     -0.34257      0.29484
   
 Atom       N141         C142         C143         C144         H145    
 Charge   -0.49142      0.46636     -0.37898      0.10646      0.18688
   
 Atom       H146         H147         H148    
 Charge    0.08261      0.20839      0.13487
  
  sum of atomic charges:     0.000000
   
 RMS Error   9.77E-04 hartrees
 
  Peak memory usage:    816 Mb
  
  end of program ch
   
 Time(ch)  user:       18.5  user+sys:       18.5  wallclock:       75.7
  
  start of program post
  
  Writing input files for PBF
  Peak memory usage:    759 Mb
  
  end of program post
   
 Time(post)  user:        0.8  user+sys:        0.8  wallclock:        3.8

  start of program pbf

Pbf Version 4.10

Molecular surface area:      866.89859   [A2]
Reaction field energy:       -18.79331   [kT]
  Peak memory usage: 721 Mb

  end of program pbf

 Time(pbf)  user:        9.4  user+sys:        9.5  wallclock:       36.2
  
  start of program solv
  
   number of surface charges from PBF   13066
   sum of surface charges     -0.00028
   
  nuclear repulsion energy.......   20817.857352217 hartrees
  Peak memory usage:    894 Mb
  
  end of program solv
   
 Time(solv)  user:       35.2  user+sys:       35.2  wallclock:      148.9
  
  start of program scf
  
 Energy computed with NOPS off.
  
       i  u  d  i  g                   
       t  p  i  c  r                                 RMS    maximum
       e  d  i  u  i                       energy  density   DIIS  
       r  t  s  t  d       total energy    change  change    error 
  
etot    1  N  N  1  U   -5575.59535881480           5.6E-06  1.1E-04
etot    2  N  N  1  U   -5575.59535892496  1.1E-07  0.0E+00  0.0E+00
  
  
 Energy components, in hartrees:
   (A)  Total zero-electron terms....   20821.11870194406
   (B)    Nuclear-nuclear............   20817.85735221664
   (C)    Nuclear-solvent............       3.26134972742
   (E)  Total one-electron terms.....  -49168.66968891423
   (F)    Electron-nuclear...........  -54701.39852805642
   (G)    Electron-solvent...........      -3.30101027555
   (H)    Kinetic....................    5536.02984941774
   (I)  Total two-electron terms.....   22771.95562804521
   (J)    Coulomb....................   23423.22327500889
   (K)    Exchange+Correlation.......    -651.26764696367
   (L)  Electronic energy............  -26396.71406086902  (E+I)
   (N)  Total quantum mech. energy...   -5575.59535892496  (A+L)
   (O)  Gas phase energy.............   -5575.55691450163
   (P)  Solution phase energy........   -5575.57552865089  (Q+R+S)
   (Q)    Total solute energy........   -5575.55569837683  (N-C-G)
   (R)    Total solvent energy.......      -0.01983027406  (C/2+G/2)
   (S)    Solute cavity energy.......       0.00000000000
   (U)  Reorganization energy........       0.00121612480  (Q-O)
   (V)  Solvation energy.............      -0.01861414926  (P-O)
  
 SCFE:  Solution phase energy: DFT(m06-2x)      -5575.57552865089 hartrees
        SCF iterations:   2
  
 
 HOMO energy:    -0.27519
 LUMO energy:    -0.06284
 
  Orbital energies (hartrees): 
   -67.69737   -66.57570   -61.15837   -43.32810   -32.03128   -27.00222
   -26.66233   -24.97189   -24.67384   -23.32478   -19.15668   -17.78683
   -17.68499   -17.48425   -17.23953   -17.20622   -16.91266   -15.40711
   -15.10957   -15.05605   -15.03426   -15.01531   -14.87710   -14.63345
   -14.58530   -14.48755   -14.44444   -14.43249   -14.34293   -14.17866
   -14.02684   -13.58564   -13.50847   -13.41325   -12.99821   -12.96943
   -12.28459   -11.86884   -11.78219   -11.63573   -11.36506   -11.06335
   -11.02513   -10.94313   -10.90291   -10.82113   -10.75974   -10.75769
   -10.71950   -10.60335   -10.58769   -10.57464   -10.56986   -10.54829
   -10.54517   -10.53833   -10.51810   -10.50901   -10.48558   -10.47367
   -10.44240   -10.42559   -10.41755   -10.41024   -10.38228   -10.34510
   -10.33678   -10.30244   -10.29765   -10.20696   -10.18080   -10.17291
   -10.13603   -10.12612   -10.12389   -10.10478   -10.07283   -10.02794
   -10.02534    -9.97975    -9.97335    -9.91067    -9.89859    -9.89841
    -9.88314    -9.88264    -9.85804    -9.84353    -9.81946    -9.74395
    -9.72251    -9.53619    -9.50942    -9.50626    -9.42932    -9.39128
    -9.39092    -9.24681    -9.20413    -9.19524    -9.05600    -9.00285
    -8.65540    -8.63256    -8.48956    -8.22503    -8.04295    -7.70222
    -7.65738    -7.31885    -6.91601    -4.94450    -1.42391    -1.38340
    -1.37871    -1.15784    -1.05579    -1.05217    -1.02558    -0.99593
    -0.98193    -0.96516    -0.94410    -0.94046    -0.93686    -0.92967
    -0.92395    -0.90779    -0.89438    -0.87993    -0.87420    -0.87314
    -0.87293    -0.86998    -0.86833    -0.86832    -0.86031    -0.85486
    -0.84920    -0.83793    -0.83786    -0.83569    -0.83505    -0.83324
    -0.82028    -0.81872    -0.81684    -0.81125    -0.80705    -0.80387
    -0.80102    -0.79432    -0.79195    -0.78737    -0.78635    -0.78508
    -0.78311    -0.78146    -0.77994    -0.77875    -0.77089    -0.76778
    -0.75347    -0.74942    -0.74265    -0.73790    -0.72418    -0.72409
    -0.72330    -0.72192    -0.71616    -0.71440    -0.71371    -0.70916
    -0.70200    -0.69731    -0.69544    -0.69295    -0.69134    -0.69127
    -0.68923    -0.68379    -0.68200    -0.68034    -0.67375    -0.66741
    -0.65434    -0.64893    -0.64500    -0.64444    -0.63501    -0.62851
    -0.62813    -0.62662    -0.62532    -0.61984    -0.61876    -0.61284
    -0.60897    -0.60846    -0.60836    -0.60731    -0.60283    -0.59637
    -0.59564    -0.59324    -0.59005    -0.58681    -0.58460    -0.58136
    -0.58062    -0.57761    -0.57483    -0.57462    -0.57281    -0.57021
    -0.56783    -0.56552    -0.56515    -0.55977    -0.55863    -0.55717
    -0.55682    -0.55275    -0.55013    -0.54768    -0.54723    -0.54586
    -0.54563    -0.54563    -0.54508    -0.54424    -0.54348    -0.54290
    -0.53937    -0.53200    -0.52837    -0.52812    -0.52460    -0.52055
    -0.52036    -0.51515    -0.51497    -0.51482    -0.51340    -0.51127
    -0.51031    -0.51026    -0.50718    -0.50685    -0.50682    -0.50514
    -0.50446    -0.50313    -0.50300    -0.50289    -0.49961    -0.49859
    -0.49261    -0.49030    -0.48840    -0.48607    -0.48184    -0.48125
    -0.48022    -0.48014    -0.47969    -0.47873    -0.47768    -0.47563
    -0.47406    -0.47362    -0.47229    -0.47148    -0.47046    -0.46986
    -0.46921    -0.46908    -0.46790    -0.46751    -0.46697    -0.46622
    -0.46562    -0.46511    -0.46304    -0.46049    -0.46040    -0.45991
    -0.45776    -0.45694    -0.45460    -0.45338    -0.45091    -0.44957
    -0.44929    -0.44768    -0.44765    -0.44613    -0.44575    -0.44574
    -0.44450    -0.44328    -0.44149    -0.44125    -0.43517    -0.43453
    -0.43349    -0.42227    -0.42096    -0.41942    -0.41422    -0.41380
    -0.40864    -0.40535    -0.40426    -0.39415    -0.39254    -0.38569
    -0.37767    -0.36419    -0.35445    -0.34394    -0.33035    -0.32227
    -0.31703    -0.30778    -0.30596    -0.30506    -0.30409    -0.30348
    -0.30274    -0.30230    -0.30142    -0.30062    -0.29967    -0.29856
    -0.29655    -0.29322    -0.28936    -0.27519    -0.06284    -0.02399
    -0.02019    -0.00221    -0.00154     0.00752     0.01384     0.01600
     0.01796     0.02439
 
  Peak memory usage:   1029 Mb
  
  end of program scf
   
 Time(scf)  user:     2643.3  user+sys:     2643.3  wallclock:    10963.6
  
  start of program sole
  
    SCRF                   solvation energy
  iteration          Hartrees            kcal/mol
     0               0.0000000            0.0000
     1              -0.0175571          -11.0173
     2              -0.0186141          -11.6806
  
  solvation energy not yet converged... 
  
  Peak memory usage:    813 Mb
  
  end of program sole
   
 Time(sole)  user:        0.1  user+sys:        0.1  wallclock:        0.6
  
  start of program ch
  
  gridpoints used for charge fit        16675
    out of a possible maximum of        16675
  
   Electrostatic potential fitting constrained to reproduce
     total charge:                yes
     dipole moment:               no 
     traceless quadrupole moment: no 
     traceless octapole moment:   no 
  
  Atomic charges from electrostatic potential: 
   
 Atom       C1           C2           C3           C4           H5      
 Charge   -0.21516     -0.49524      0.23430      0.06577      0.21856
   
 Atom       C6           C7           C8           C9           H10     
 Charge   -0.34614     -0.00548     -0.00003      0.16275      0.16866
   
 Atom       C11          C12          C13          C14          C15     
 Charge    0.10115      0.24001     -0.23989     -0.12605     -0.15972
   
 Atom       C16          H17          H18          H19          H20     
 Charge   -0.14677      0.15289      0.14246      0.15059      0.11271
   
 Atom       C21          C22          C23          C24          C25     
 Charge    0.19803      0.04148     -0.21336     -0.14313     -0.11721
   
 Atom       C26          H27          H28          H29          H30     
 Charge   -0.24968      0.15174      0.14862      0.14130      0.16024
   
 Atom       Si31         Si32         C33          C34          C35     
 Charge   -0.15788      0.16157     -0.19652     -0.14312     -0.11796
   
 Atom       C36          C37          C38          H39          H40     
 Charge    0.25163     -0.29298     -0.04507      0.14892      0.13069
   
 Atom       H41          H42          H43          C44          C45     
 Charge    0.09097      0.13241      0.11163     -0.14935     -0.15017
   
 Atom       C46          C47          C48          C49          H50     
 Charge   -0.15301      0.12937     -0.22128     -0.11190      0.12497
   
 Atom       H51          H52          H53          H54          C55     
 Charge    0.13896      0.13257      0.14619      0.12181     -0.16073
   
 Atom       C56          C57          C58          C59          C60     
 Charge   -0.16089     -0.11708      0.13609     -0.26770     -0.07423
   
 Atom       H61          H62          H63          H64          H65     
 Charge    0.14240      0.14712      0.08477      0.15587      0.12625
   
 Atom       C66          C67          C68          C69          C70     
 Charge   -0.18693     -0.08736     -0.12221      0.04862     -0.25629
   
 Atom       C71          H72          H73          H74          H75     
 Charge   -0.05232      0.13569      0.09576      0.11305      0.13964
   
 Atom       H76          C77          C78          C79          C80     
 Charge    0.11803     -0.09397     -0.18965     -0.11187      0.00855
   
 Atom       C81          C82          H83          H84          H85     
 Charge   -0.03859     -0.19816      0.13481      0.13408      0.09934
   
 Atom       H86          H87          C88          C89          C90     
 Charge    0.09674      0.14233     -0.12338     -0.19002     -0.08391
   
 Atom       C91          C92          C93          H94          H95     
 Charge    0.00728     -0.13596     -0.14286      0.13719      0.14800
   
 Atom       H96          H97          H98          O99          O100    
 Charge    0.10916      0.08823      0.14175     -0.29247     -0.22682
   
 Atom       P101         O102         N103         H104         C105    
 Charge    0.94333     -0.58235     -0.34464      0.39669     -0.06949
   
 Atom       C106         C107         C108         C109         C110    
 Charge   -0.12793     -0.14308     -0.21337      0.51749     -0.32967
   
 Atom       C111         H112         H113         H114         H115    
 Charge   -0.14075      0.15289      0.14765      0.08482      0.21514
   
 Atom       H116         H117         N118         S119         O120    
 Charge    0.16064      0.10850     -0.56193      0.70868     -0.42190
   
 Atom       O121         C122         F123         F124         F125    
 Charge   -0.53561      0.38061     -0.08313     -0.12260     -0.13095
   
 Atom       C126         C127         C128         C129         N130    
 Charge   -0.22635     -0.11845     -0.26150     -0.10247      0.15902
   
 Atom       H131         H132         H133         H134         H135    
 Charge    0.16066      0.17248      0.19163      0.16994      0.22390
   
 Atom       S136         O137         O138         C139         C140    
 Charge    0.61756     -0.43052     -0.42744     -0.34103      0.29481
   
 Atom       N141         C142         C143         C144         H145    
 Charge   -0.49395      0.46506     -0.37889      0.10825      0.18756
   
 Atom       H146         H147         H148    
 Charge    0.08268      0.20875      0.13602
  
  sum of atomic charges:     0.000000
   
 RMS Error   9.80E-04 hartrees
 
  Peak memory usage:    816 Mb
  
  end of program ch
   
 Time(ch)  user:       18.5  user+sys:       18.5  wallclock:       73.5
  
  start of program post
  
  Writing input files for PBF
  Peak memory usage:    759 Mb
  
  end of program post
   
 Time(post)  user:        0.8  user+sys:        0.8  wallclock:        4.0

  start of program pbf

Pbf Version 4.10

Molecular surface area:      866.89859   [A2]
Reaction field energy:       -19.09369   [kT]
  Peak memory usage: 721 Mb

  end of program pbf

 Time(pbf)  user:        9.3  user+sys:        9.4  wallclock:       35.9
  
  start of program solv
  
   number of surface charges from PBF   13066
   sum of surface charges     -0.00029
   
  nuclear repulsion energy.......   20817.857352217 hartrees
  Peak memory usage:    894 Mb
  
  end of program solv
   
 Time(solv)  user:       35.4  user+sys:       35.4  wallclock:      138.6
  
  start of program scf
  
 Energy computed with NOPS off.
  
       i  u  d  i  g                   
       t  p  i  c  r                                 RMS    maximum
       e  d  i  u  i                       energy  density   DIIS  
       r  t  s  t  d       total energy    change  change    error 
  
etot    1  N  N  1  U   -5575.59565956260           5.6E-06  9.8E-05
etot    2  N  N  1  U   -5575.59564187091 -1.8E-05  0.0E+00  0.0E+00
  
  
 Energy components, in hartrees:
   (A)  Total zero-electron terms....   20821.17906079106
   (B)    Nuclear-nuclear............   20817.85735221664
   (C)    Nuclear-solvent............       3.32170857442
   (E)  Total one-electron terms.....  -49168.32346325830
   (F)    Electron-nuclear...........  -54700.98199623163
   (G)    Electron-solvent...........      -3.36154973984
   (H)    Kinetic....................    5536.02008271318
   (I)  Total two-electron terms.....   22771.54876059633
   (J)    Coulomb....................   23422.81591444788
   (K)    Exchange+Correlation.......    -651.26715385155
   (L)  Electronic energy............  -26396.77470266197  (E+I)
   (N)  Total quantum mech. energy...   -5575.59564187091  (A+L)
   (O)  Gas phase energy.............   -5575.55691450163
   (P)  Solution phase energy........   -5575.57572128820  (Q+R+S)
   (Q)    Total solute energy........   -5575.55580070549  (N-C-G)
   (R)    Total solvent energy.......      -0.01992058271  (C/2+G/2)
   (S)    Solute cavity energy.......       0.00000000000
   (U)  Reorganization energy........       0.00111379614  (Q-O)
   (V)  Solvation energy.............      -0.01880678657  (P-O)
  
 SCFE:  Solution phase energy: DFT(m06-2x)      -5575.57572128820 hartrees
        SCF iterations:   2
  
 
 HOMO energy:    -0.25533
 LUMO energy:    -0.06423
 
  Orbital energies (hartrees): 
   -90.18523   -90.16173   -78.21436   -67.01026   -67.00975   -25.29607
   -25.29561   -25.29556   -19.69541   -19.69109   -19.66402   -19.66084
   -19.63979   -19.63074   -19.60512   -14.82313   -14.80996   -14.79800
   -14.74965   -10.81259   -10.66399   -10.63812   -10.62932   -10.62423
   -10.60981   -10.60287   -10.59353   -10.59030   -10.58967   -10.58271
   -10.58127   -10.57418   -10.57177   -10.57147   -10.57023   -10.56910
   -10.56691   -10.56480   -10.56313   -10.56239   -10.56205   -10.56131
   -10.56127   -10.56098   -10.55827   -10.55373   -10.55361   -10.55340
   -10.55312   -10.55258   -10.55232   -10.55149   -10.55139   -10.55073
   -10.55065   -10.55039   -10.55029   -10.55009   -10.54975   -10.54880
   -10.54830   -10.54801   -10.54797   -10.54776   -10.54720   -10.54658
   -10.54615   -10.54568   -10.54562   -10.54496   -10.54495   -10.54490
   -10.54448   -10.54414   -10.54360   -10.54347   -10.54337   -10.54331
   -10.54303   -10.54203   -10.54185   -10.54139   -10.54095   -10.54064
   -10.54059   -10.54048   -10.53656   -10.53460   -10.53158   -10.53123
   -10.52878   -10.52856    -8.49513    -8.47002    -6.99350    -6.41745
    -6.41641    -6.41553    -6.39183    -6.39165    -6.39137    -5.54117
    -5.54090    -5.11209    -5.11097    -5.10932    -3.85102    -3.85074
    -3.85070    -3.85038    -3.85028    -3.85022    -1.46270    -1.37191
    -1.37039    -1.25678    -1.23362    -1.22328    -1.18983    -1.14404
    -1.11167    -1.10209    -1.08845    -1.08838    -1.06906    -0.99387
    -0.98303    -0.97256    -0.96841    -0.94543    -0.94485    -0.93972
    -0.93828    -0.93694    -0.93561    -0.92688    -0.92305    -0.91245
    -0.90370    -0.89180    -0.88412    -0.87953    -0.85489    -0.85297
    -0.84614    -0.84273    -0.83917    -0.83713    -0.83599    -0.83324
    -0.83281    -0.83257    -0.82992    -0.82920    -0.82889    -0.82793
    -0.82700    -0.82469    -0.82412    -0.82217    -0.82178    -0.81498
    -0.80235    -0.76490    -0.75629    -0.74116    -0.73505    -0.71697
    -0.71171    -0.70613    -0.70242    -0.69908    -0.69254    -0.68867
    -0.68664    -0.68167    -0.67884    -0.67849    -0.67777    -0.67752
    -0.67328    -0.67130    -0.67058    -0.66993    -0.66716    -0.66600
    -0.66298    -0.66104    -0.65966    -0.65802    -0.65693    -0.65455
    -0.65232    -0.64170    -0.63683    -0.62800    -0.61703    -0.61332
    -0.60844    -0.60378    -0.60047    -0.58858    -0.58313    -0.58097
    -0.58011    -0.57777    -0.57648    -0.57620    -0.57526    -0.57477
    -0.57071    -0.56784    -0.56340    -0.56066    -0.55360    -0.55181
    -0.54823    -0.54764    -0.54088    -0.53920    -0.53699    -0.53551
    -0.53251    -0.52954    -0.52674    -0.52439    -0.52256    -0.51777
    -0.51745    -0.51686    -0.51465    -0.51321    -0.51219    -0.51167
    -0.51062    -0.50736    -0.50680    -0.50608    -0.50224    -0.50154
    -0.50092    -0.49867    -0.49775    -0.49701    -0.49660    -0.49635
    -0.49434    -0.49283    -0.49229    -0.49147    -0.49073    -0.48977
    -0.48406    -0.48315    -0.48205    -0.47906    -0.47853    -0.47660
    -0.47554    -0.47382    -0.47093    -0.46613    -0.46394    -0.46044
    -0.45783    -0.45512    -0.45270    -0.45211    -0.44939    -0.44716
    -0.44462    -0.44368    -0.43912    -0.43677    -0.43403    -0.43282
    -0.42827    -0.42680    -0.42544    -0.42263    -0.42176    -0.42053
    -0.41798    -0.41766    -0.41664    -0.41387    -0.41116    -0.40735
    -0.40672    -0.40323    -0.39974    -0.39964    -0.39531    -0.39406
    -0.39326    -0.39138    -0.38922    -0.38798    -0.38698    -0.38617
    -0.38455    -0.38312    -0.38296    -0.38150    -0.37795    -0.36899
    -0.36684    -0.36397    -0.35673    -0.35353    -0.35130    -0.34744
    -0.34294    -0.34194    -0.34161    -0.33852    -0.33803    -0.33654
    -0.32920    -0.32744    -0.32564    -0.31583    -0.31269    -0.30477
    -0.30370    -0.30316    -0.30190    -0.29716    -0.29496    -0.29421
    -0.29341    -0.29205    -0.29172    -0.29135    -0.28899    -0.28859
    -0.28323    -0.27791    -0.27504    -0.25533    -0.06423    -0.02493
    -0.02074    -0.00272    -0.00209     0.00686     0.01323     0.01539
     0.01762     0.02388
 
  Peak memory usage:   1029 Mb
  
  end of program scf
   
 Time(scf)  user:     2632.6  user+sys:     2632.6  wallclock:    10893.1
  
  start of program sole
  
    SCRF                   solvation energy
  iteration          Hartrees            kcal/mol
     0               0.0000000            0.0000
     1              -0.0175571          -11.0173
     2              -0.0186141          -11.6806
     3              -0.0188068          -11.8014
  
  solvation energy not yet converged... 
  
  Peak memory usage:    813 Mb
  
  end of program sole
   
 Time(sole)  user:        0.2  user+sys:        0.2  wallclock:        0.5
  
  start of program ch
  
  gridpoints used for charge fit        16675
    out of a possible maximum of        16675
  
   Electrostatic potential fitting constrained to reproduce
     total charge:                yes
     dipole moment:               no 
     traceless quadrupole moment: no 
     traceless octapole moment:   no 
  
  Atomic charges from electrostatic potential: 
   
 Atom       C1           C2           C3           C4           H5      
 Charge   -0.21405     -0.49501      0.23637      0.06498      0.21821
   
 Atom       C6           C7           C8           C9           H10     
 Charge   -0.34715     -0.00334      0.00009      0.16259      0.16876
   
 Atom       C11          C12          C13          C14          C15     
 Charge    0.09968      0.23928     -0.23916     -0.12740     -0.16109
   
 Atom       C16          H17          H18          H19          H20     
 Charge   -0.14572      0.15283      0.14271      0.15085      0.11246
   
 Atom       C21          C22          C23          C24          C25     
 Charge    0.19751      0.04252     -0.21348     -0.14386     -0.11835
   
 Atom       C26          H27          H28          H29          H30     
 Charge   -0.24924      0.15193      0.14870      0.14145      0.16016
   
 Atom       Si31         Si32         C33          C34          C35     
 Charge   -0.15707      0.16105     -0.19797     -0.14387     -0.11820
   
 Atom       C36          C37          C38          H39          H40     
 Charge    0.25412     -0.29195     -0.04614      0.14912      0.13077
   
 Atom       H41          H42          H43          C44          C45     
 Charge    0.09073      0.13234      0.11159     -0.15052     -0.15133
   
 Atom       C46          C47          C48          C49          H50     
 Charge   -0.15290      0.13099     -0.21893     -0.11337      0.12503
   
 Atom       H51          H52          H53          H54          C55     
 Charge    0.13909      0.13221      0.14576      0.12184     -0.16211
   
 Atom       C56          C57          C58          C59          C60     
 Charge   -0.16089     -0.11703      0.13790     -0.26694     -0.07541
   
 Atom       H61          H62          H63          H64          H65     
 Charge    0.14257      0.14704      0.08451      0.15560      0.12631
   
 Atom       C66          C67          C68          C69          C70     
 Charge   -0.18784     -0.08576     -0.12193      0.04932     -0.25770
   
 Atom       C71          H72          H73          H74          H75     
 Charge   -0.05275      0.13574      0.09541      0.11300      0.13954
   
 Atom       H76          C77          C78          C79          C80     
 Charge    0.11803     -0.09467     -0.19027     -0.11280      0.01026
   
 Atom       C81          C82          H83          H84          H85     
 Charge   -0.03699     -0.19921      0.13493      0.13403      0.09961
   
 Atom       H86          H87          C88          C89          C90     
 Charge    0.09650      0.14238     -0.12422     -0.19008     -0.08427
   
 Atom       C91          C92          C93          H94          H95     
 Charge    0.00830     -0.13502     -0.14355      0.13729      0.14800
   
 Atom       H96          H97          H98          O99          O100    
 Charge    0.10918      0.08787      0.14177     -0.29212     -0.22730
   
 Atom       P101         O102         N103         H104         C105    
 Charge    0.94582     -0.58435     -0.34223      0.39715     -0.06332
   
 Atom       C106         C107         C108         C109         C110    
 Charge   -0.13030     -0.14518     -0.21402      0.51980     -0.32737
   
 Atom       C111         H112         H113         H114         H115    
 Charge   -0.14244      0.15344      0.14802      0.08503      0.21481
   
 Atom       H116         H117         N118         S119         O120    
 Charge    0.16088      0.10691     -0.56123      0.71028     -0.42308
   
 Atom       O121         C122         F123         F124         F125    
 Charge   -0.53609      0.37949     -0.08267     -0.12230     -0.13125
   
 Atom       C126         C127         C128         C129         N130    
 Charge   -0.22615     -0.11737     -0.26349     -0.10803      0.15953
   
 Atom       H131         H132         H133         H134         H135    
 Charge    0.16109      0.17258      0.19207      0.17080      0.22426
   
 Atom       S136         O137         O138         C139         C140    
 Charge    0.62006     -0.43315     -0.42891     -0.34301      0.29417
   
 Atom       N141         C142         C143         C144         H145    
 Charge   -0.49103      0.46710     -0.37961      0.10570      0.18791
   
 Atom       H146         H147         H148    
 Charge    0.08257      0.20869      0.13655
  
  sum of atomic charges:     0.000000
   
 RMS Error   9.78E-04 hartrees
 
  Peak memory usage:    816 Mb
  
  end of program ch
   
 Time(ch)  user:       18.5  user+sys:       18.5  wallclock:       74.3
  
  start of program post
  
  Writing input files for PBF
  Peak memory usage:    759 Mb
  
  end of program post
   
 Time(post)  user:        0.8  user+sys:        0.8  wallclock:        3.9

  start of program pbf

Pbf Version 4.10

Molecular surface area:      866.89859   [A2]
Reaction field energy:       -18.97385   [kT]
  Peak memory usage: 721 Mb

  end of program pbf

 Time(pbf)  user:        9.3  user+sys:        9.4  wallclock:       34.8
  
  start of program solv
  
   number of surface charges from PBF   13066
   sum of surface charges     -0.00028
   
  nuclear repulsion energy.......   20817.857352217 hartrees
  Peak memory usage:    894 Mb
  
  end of program solv
   
 Time(solv)  user:       35.2  user+sys:       35.2  wallclock:      147.6
  
  start of program scf
  
 Energy computed with NOPS off.
  
       i  u  d  i  g                   
       t  p  i  c  r                                 RMS    maximum
       e  d  i  u  i                       energy  density   DIIS  
       r  t  s  t  d       total energy    change  change    error 
  
etot    1  N  N  1  U   -5575.59553109199           9.0E-06  1.7E-04
etot    2  N  Y  1  U   -5575.59547310435 -5.8E-05  5.9E-06  3.0E-04
etot    3  N  Y  1  U   -5575.59555580694  8.3E-05  1.8E-07  1.1E-05
etot    4  N  N  1  U   -5575.59555592576  1.2E-07  0.0E+00  0.0E+00
  
  
 Energy components, in hartrees:
   (A)  Total zero-electron terms....   20821.13945393403
   (B)    Nuclear-nuclear............   20817.85735221664
   (C)    Nuclear-solvent............       3.28210171740
   (E)  Total one-electron terms.....  -49168.52096942703
   (F)    Electron-nuclear...........  -54701.22240549532
   (G)    Electron-solvent...........      -3.32189735676
   (H)    Kinetic....................    5536.02333342505
   (I)  Total two-electron terms.....   22771.78595956723
   (J)    Coulomb....................   23423.05308824354
   (K)    Exchange+Correlation.......    -651.26712867630
   (L)  Electronic energy............  -26396.73500985980  (E+I)
   (N)  Total quantum mech. energy...   -5575.59555592576  (A+L)
   (O)  Gas phase energy.............   -5575.55691450163
   (P)  Solution phase energy........   -5575.57565810608  (Q+R+S)
   (Q)    Total solute energy........   -5575.55576028639  (N-C-G)
   (R)    Total solvent energy.......      -0.01989781968  (C/2+G/2)
   (S)    Solute cavity energy.......       0.00000000000
   (U)  Reorganization energy........       0.00115421524  (Q-O)
   (V)  Solvation energy.............      -0.01874360445  (P-O)
  
 SCFE:  Solution phase energy: DFT(m06-2x)      -5575.57565810608 hartrees
        SCF iterations:   4
  
 
 HOMO energy:    -0.25501
 LUMO energy:    -0.06337
 
  Orbital energies (hartrees): 
   -90.18362   -90.16076   -78.21348   -67.00905   -67.00905   -25.29560
   -25.29558   -25.29505   -19.69410   -19.69047   -19.66350   -19.66181
   -19.63894   -19.63081   -19.60560   -14.81976   -14.80977   -14.79548
   -14.74818   -10.81211   -10.66106   -10.63631   -10.62817   -10.62312
   -10.60944   -10.60471   -10.59220   -10.59123   -10.58969   -10.58209
   -10.58086   -10.57370   -10.57181   -10.57105   -10.57017   -10.56845
   -10.56608   -10.56583   -10.56305   -10.56286   -10.56252   -10.56144
   -10.56088   -10.56063   -10.55776   -10.55397   -10.55369   -10.55324
   -10.55307   -10.55281   -10.55206   -10.55180   -10.55157   -10.55117
   -10.55102   -10.55068   -10.55065   -10.55000   -10.54994   -10.54870
   -10.54804   -10.54794   -10.54780   -10.54779   -10.54694   -10.54654
   -10.54618   -10.54571   -10.54534   -10.54512   -10.54477   -10.54451
   -10.54446   -10.54430   -10.54383   -10.54359   -10.54318   -10.54291
   -10.54235   -10.54187   -10.54151   -10.54110   -10.54055   -10.54020
   -10.53948   -10.53936   -10.53541   -10.53402   -10.53033   -10.53013
   -10.52810   -10.52733    -8.49360    -8.46908    -6.99265    -6.41591
    -6.41488    -6.41400    -6.39089    -6.39071    -6.39042    -5.54022
    -5.53998    -5.11124    -5.11012    -5.10847    -3.85006    -3.84983
    -3.84959    -3.84954    -3.84951    -3.84919    -1.46229    -1.37161
    -1.36989    -1.25597    -1.23278    -1.22252    -1.18892    -1.14353
    -1.11101    -1.10203    -1.08812    -1.08723    -1.06700    -0.99296
    -0.98260    -0.97229    -0.96818    -0.94519    -0.94468    -0.93958
    -0.93798    -0.93648    -0.93541    -0.92686    -0.92284    -0.91218
    -0.90293    -0.89141    -0.88407    -0.87902    -0.85468    -0.85293
    -0.84577    -0.84245    -0.83876    -0.83695    -0.83586    -0.83301
    -0.83254    -0.83235    -0.82961    -0.82891    -0.82861    -0.82761
    -0.82682    -0.82442    -0.82382    -0.82188    -0.82127    -0.81421
    -0.80203    -0.76427    -0.75561    -0.74073    -0.73451    -0.71626
    -0.71120    -0.70582    -0.70211    -0.69868    -0.69210    -0.68833
    -0.68620    -0.68135    -0.67859    -0.67830    -0.67757    -0.67733
    -0.67296    -0.67114    -0.67013    -0.66963    -0.66681    -0.66573
    -0.66273    -0.66081    -0.65927    -0.65772    -0.65666    -0.65395
    -0.65189    -0.64115    -0.63669    -0.62753    -0.61625    -0.61282
    -0.60807    -0.60345    -0.60012    -0.58793    -0.58286    -0.58081
    -0.57962    -0.57754    -0.57621    -0.57586    -0.57502    -0.57447
    -0.57040    -0.56742    -0.56300    -0.56040    -0.55310    -0.55131
    -0.54785    -0.54714    -0.54045    -0.53891    -0.53661    -0.53501
    -0.53210    -0.52920    -0.52638    -0.52397    -0.52227    -0.51758
    -0.51717    -0.51657    -0.51435    -0.51291    -0.51185    -0.51144
    -0.51024    -0.50686    -0.50641    -0.50575    -0.50197    -0.50134
    -0.50066    -0.49836    -0.49741    -0.49678    -0.49631    -0.49602
    -0.49409    -0.49263    -0.49200    -0.49117    -0.49028    -0.48965
    -0.48389    -0.48298    -0.48191    -0.47888    -0.47825    -0.47636
    -0.47521    -0.47355    -0.47060    -0.46581    -0.46387    -0.46052
    -0.45756    -0.45485    -0.45247    -0.45188    -0.44908    -0.44682
    -0.44433    -0.44338    -0.43866    -0.43626    -0.43372    -0.43241
    -0.42801    -0.42648    -0.42520    -0.42233    -0.42141    -0.42026
    -0.41776    -0.41734    -0.41622    -0.41352    -0.41074    -0.40692
    -0.40615    -0.40305    -0.39951    -0.39899    -0.39505    -0.39354
    -0.39304    -0.39126    -0.38905    -0.38763    -0.38670    -0.38582
    -0.38430    -0.38272    -0.38255    -0.38099    -0.37759    -0.36870
    -0.36637    -0.36348    -0.35618    -0.35313    -0.35020    -0.34704
    -0.34248    -0.34152    -0.34103    -0.33799    -0.33749    -0.33582
    -0.32851    -0.32710    -0.32525    -0.31567    -0.31251    -0.30448
    -0.30351    -0.30280    -0.30177    -0.29701    -0.29463    -0.29394
    -0.29309    -0.29175    -0.29129    -0.29095    -0.28862    -0.28820
    -0.28285    -0.27741    -0.27476    -0.25501    -0.06337    -0.02434
    -0.02042    -0.00240    -0.00177     0.00725     0.01359     0.01575
     0.01783     0.02418
 
  Peak memory usage:   1029 Mb
  
  end of program scf
   
 Time(scf)  user:     7726.8  user+sys:     7726.8  wallclock:    25076.9
  
  start of program sole
  
    SCRF                   solvation energy
  iteration          Hartrees            kcal/mol
     0               0.0000000            0.0000
     1              -0.0175571          -11.0173
     2              -0.0186141          -11.6806
     3              -0.0188068          -11.8014
     4              -0.0187436          -11.7618
  
  stopping: solvation energy converged
  
  iterations:   4    sfinal:    -11.7618 kcal/mol
  
  Peak memory usage:    813 Mb
  
  end of program sole
   
 Time(sole)  user:        0.2  user+sys:        0.2  wallclock:        0.3
  
  start of program post
  
  Writing input files for PBF
  Peak memory usage:    759 Mb
  
  end of program post
   
 Time(post)  user:        0.8  user+sys:        0.8  wallclock:        2.0

 Total cpu seconds     user:   58710.783   user+sys:   58710.783
  
 Total elapsed time:    230378 seconds

Job Type-I-Z-sulfonyl-bind-3-chkp-unrestrained-SPE completed on tethys at Mon Mar  6 05:59:52 2017
