Command:    jaguar run jexec.py -jobname Toru-SiPh3-NTf-Type-II-E-Sulfonyl-1-chkp-scan-207-unrestrained.1-SPE_2 -nsubjobs 1 Toru-SiPh3-NTf-Type-II-E-Sulfonyl-1-chkp-scan-207-unrestrained.1-SPE_2.in
[running at reduced cpu priority]
Release:    2017-1
Exec:       /usr/local/shared/schrodinger/current/jaguar-v9.5/bin/Linux-x86_64
Host:       tethys
JobId:      tethys-0-58c7eb0a
JobDir:     /scratch/ab2144/Toru-SiPh3-NTf-Type-II-E-Sulfonyl-1-chkp-scan-207-unrestrained.1-SPE_2
Date:       Tue Mar 14 13:07:26 2017

Contents of /scratch/ab2144/Toru-SiPh3-NTf-Type-II-E-Sulfonyl-1-chkp-scan-207-unrestrained.1-SPE_2:
/scratch/ab2144/Toru-SiPh3-NTf-Type-II-E-Sulfonyl-1-chkp-scan-207-unrestrained.1-SPE_2/tethys-0-58c7eb0a.recover
/scratch/ab2144/Toru-SiPh3-NTf-Type-II-E-Sulfonyl-1-chkp-scan-207-unrestrained.1-SPE_2/Toru-SiPh3-NTf-Type-II-E-Sulfonyl-1-chkp-scan-207-unrestrained.1-SPE_2.log
/scratch/ab2144/Toru-SiPh3-NTf-Type-II-E-Sulfonyl-1-chkp-scan-207-unrestrained.1-SPE_2/Toru-SiPh3-NTf-Type-II-E-Sulfonyl-1-chkp-scan-207-unrestrained.1-SPE_2.in
/scratch/ab2144/Toru-SiPh3-NTf-Type-II-E-Sulfonyl-1-chkp-scan-207-unrestrained.1-SPE_2/Toru-SiPh3-NTf-Type-II-E-Sulfonyl-1-chkp-scan-207-unrestrained.1-SPE_2.recover
/scratch/ab2144/Toru-SiPh3-NTf-Type-II-E-Sulfonyl-1-chkp-scan-207-unrestrained.1-SPE_2/tethys-0-58c7eb0a
/scratch/ab2144/Toru-SiPh3-NTf-Type-II-E-Sulfonyl-1-chkp-scan-207-unrestrained.1-SPE_2/tethys-0-58c7eb0a.nodes
/scratch/ab2144/Toru-SiPh3-NTf-Type-II-E-Sulfonyl-1-chkp-scan-207-unrestrained.1-SPE_2/Toru-SiPh3-NTf-Type-II-E-Sulfonyl-1-chkp-scan-207-unrestrained.1-SPE_2.mae

Executing subprocess:
/usr/local/shared/schrodinger/current/jaguar-v9.5/bin/Linux-x86_64/jexec Toru-SiPh3-NTf-Type-II-E-Sulfonyl-1-chkp-scan-207-unrestrained.1-SPE_2.in -cwd -out /scratch/ab2144/Toru-SiPh3-NTf-Type-II-E-Sulfonyl-1-chkp-scan-207-unrestrained.1-SPE_2

[running at reduced cpu priority]
[running at reduced cpu priority]
Job Toru-SiPh3-NTf-Type-II-E-Sulfonyl-1-chkp-scan-207-unrestrained.1-SPE_2 started on tethys at Tue Mar 14 13:07:26 2017
jobid: tethys-0-58c7eb0a 
Jaguar version 9.5, release  11
Molecular Point Group: C1      
Point Group used: C1
pre (input checking) done.
onee (1-electron integrals) done.
hfig (HF initial guess) done.
probe (project orbitals) done.
grid (grid generation) done.
rwr (Q operators) done.
scf type: DFT=M06-2X
  
       i  u  d  i  g
       t  p  i  c  r                                 RMS    maximum
       e  d  i  u  i                       energy  density   DIIS  
       r  t  s  t  d       total energy    change  change    error 
  
etot    1  N  N  1  U   -5562.71679005724           4.0E-03  9.9E-02
etot    2  N  Y  1  U   -5529.81559618886 -3.3E+01  1.9E-02  1.4E-01
etot    3  N  Y  1  U   -5284.10209189808 -2.5E+02  1.9E-02  4.4E-01
Received termination signal at Tue Mar 14 16:28:19 2017
Job Toru-SiPh3-NTf-Type-II-E-Sulfonyl-1-chkp-scan-207-unrestrained.1-SPE_2 halted prematurely on tethys at Tue Mar 14 16:28:19 2017
