Job Toru-SiPh3-NTf-Type-II-E-Sulfonyl-1-chkp-scan-207-unrestrained.1-SPE_2 started on tethys at Tue Mar 14 13:07:26 2017
jobid: tethys-0-58c7eb0a

  +--------------------------------------------------------------------+
  |  Jaguar version 9.5, release  11                                   |
  |                                                                    |
  |  Copyright Schrodinger, Inc.                                       |
  |  All Rights Reserved.                                              |
  |                                                                    |
  |  The following have contributed to Jaguar (listed alphabetically): |
  |  Mike Beachy, Art Bochevarov, Dale Braden, Yixiang Cao,            |
  |  Chris Cortis, Rich Friesner, Bill Goddard, Hod Greeley,           |
  |  Tom Hughes, Leif Jacobson, Jean-Marc Langlois,                    |
  |  Daniel Mainz, Rob Murphy, Dean Philipp, Tom Pollard,              |
  |  Murco Ringnalda, Mark Watson, Haoyu Yu.                           |
  |                                                                    |
  |  Use of this program should be acknowledged in publications as:    |
  |                                                                    |
  |  Jaguar, version 9.5, Schrodinger, Inc., New York, NY, 2017.       |
  |                                                                    |
  |  A. D. Bochevarov, E. Harder, T. F. Hughes, J. R. Greenwood,       |
  |  D. A. Braden, D. M. Philipp, D. Rinaldo, M. D. Halls,             |
  |  J. Zhang, R. A. Friesner, "Jaguar: A High-Performance Quantum     |
  |  Chemistry Software Program with Strengths in Life and Materials   |
  |  Sciences", Int. J. Quantum Chem., 2013, 113(18), 2110-2142.       |
  +--------------------------------------------------------------------+
  
  start of program pre
  
  Job name: 
 Toru-SiPh3-NTf-Type-II-E-Sulfonyl-1-chkp-scan-207-unrestrained.1-SPE_2
  Executables used: /usr/local/shared/schrodinger/current/jaguar-v9.5/bin/Linux-x86_64
  Temporary files : /scratch/ab2144/Toru-SiPh3-NTf-Type-II-E-Sulfonyl-1-chkp-scan-207-unrestrained.1-SPE_2
  Maestro file (input):  Toru-SiPh3-NTf-Type-II-E-Sulfonyl-1-chkp-scan-207-unrestrained.1-SPE_2.mae
  Maestro file (output): Toru-SiPh3-NTf-Type-II-E-Sulfonyl-1-chkp-scan-207-unrestrained.1-SPE_2.01.mae
  
  basis set:             6-31g**                         
  net molecular charge:    0
  multiplicity:            1
  
  keygrid settings 
    wispc.....   7.500E-01
    ldens.....   0
    denspc....   7.500E-01
  
   grid     daf set  nls  grid set  Q type
  ------    -------  ---  --------  ------
  coarse       1      1       1        1
  medium       2      2       2        1
  fine         3      2       3        0
  ultrafine    4      2       4        1
  charge       0      1      -1        1
  gradient     5      2       4        1
  density      0      1       0        0
  DFT-fine     0      1     -13        0
  DFT-med.     0      1     -13        0
  DFT-grad     0      1     -13        0
  DFT-der2     0      1       0        0
  DFT-cphf     0      1       0        0
  LMP2-enrg    4      2       4        1
  LMP2-grad    5      2       2        1
  DFT-cphf2    0      1       0        0
  PBF-dens     0      1       0        0
  plotting     0      1       0        0
  Rel-grad     0      1     -17        0
  
  idftgrdm  100
  ndftgrdm   50    0    0
  idftgrdf  111
  ndftgrdf   85    0    0
  idftgrdg  111
  ndftgrdg   80    3    0
  idftgrdu  433
  ndftgrdu  105    0    0
  idftgrdd  433
  ndftgrdd  105    0    0
  idftgrdc  433
  ndftgrdc   26    0    0
  idftgrdp  433
  ndftgrdp   18    0    0
  
  number of basis functions....         1680
  
 Input geometry:
                                   angstroms
  atom               x                 y                 z
  C1           -0.3246000000     -5.7127000000     -1.2890000000 
  C2            0.7358000000     -4.7143000000     -0.9678000000 
  C3           -0.0284000000     -7.0145000000     -1.3741000000 
  C4            1.9852000000     -5.1571000000     -0.7075000000 
  C5            0.4380000000     -3.2476000000     -0.8890000000 
  C6            2.3045000000     -6.6002000000     -0.8117000000 
  C7            3.0290000000     -4.2132000000     -0.2776000000 
  C8            1.3502000000     -7.4784000000     -1.1347000000 
  C9            1.3736000000     -2.4038000000     -0.3730000000 
  C10          -0.8960000000     -2.7513000000     -1.3162000000 
  C11           2.7402000000     -2.9208000000     -0.0789000000 
  O12           1.1834000000     -1.0408000000     -0.2937000000 
  Si13          4.0586000000     -1.7573000000      0.5413000000 
  C14          -1.3959000000     -2.9485000000     -2.5568000000 
  C15          -1.7491000000     -2.1246000000     -0.2803000000 
  C16          -2.8357000000     -2.6827000000     -2.8151000000 
  C17          -0.5750000000     -3.4459000000     -3.6874000000 
  C18          -3.6345000000     -2.2632000000     -1.8227000000 
  C19          -3.3685000000     -2.9379000000     -4.1675000000 
  C20          -3.0729000000     -1.9761000000     -0.4838000000 
  Si21         -4.2055000000     -1.3321000000      0.8517000000 
  O22          -1.1475000000     -1.6071000000      0.8373000000 
  C23          -1.1279000000     -3.6492000000     -4.8890000000 
  C24          -2.5638000000     -3.3914000000     -5.1353000000 
  P25          -0.1058000000     -0.3996000000      0.4827000000 
  O26           0.2756000000      0.2857000000      1.7579000000 
  N27          -0.8834000000      0.5076000000     -0.6294000000 
  C28           5.7104000000     -2.6009000000      0.6705000000 
  C29           4.1316000000     -0.3543000000     -0.6787000000 
  C30           3.6357000000     -1.1886000000      2.2617000000 
  C31          -4.4468000000      0.5060000000      0.6626000000 
  C32          -5.8393000000     -2.2123000000      0.6936000000 
  C33          -3.4509000000     -1.7438000000      2.5073000000 
  C34           6.7490000000     -2.2325000000     -0.0984000000 
  C35           5.8936000000     -3.6727000000      1.6789000000 
  C36           4.0158000000      0.9239000000     -0.2867000000 
  C37           4.2691000000     -0.6632000000     -2.1222000000 
  C38           4.4932000000     -0.4097000000      2.9413000000 
  C39           2.3882000000     -1.6458000000      2.9236000000 
  C40          -4.0596000000      1.1444000000     -0.4546000000 
  C41          -5.1083000000      1.2745000000      1.7459000000 
  C42          -7.0042000000     -1.5464000000      0.7751000000 
  C43          -5.8560000000     -3.6734000000      0.4341000000 
  C44          -3.3343000000     -3.0247000000      2.8978000000 
  C45          -2.8700000000     -0.6742000000      3.3561000000 
  C46           8.0554000000     -2.9090000000      0.0446000000 
  C47           8.2119000000     -3.8829000000      0.9490000000 
  C48           7.0786000000     -4.2815000000      1.8080000000 
  C49           4.0423000000      2.0148000000     -1.2840000000 
  C50           4.1594000000      1.7302000000     -2.5861000000 
  C51           4.2797000000      0.3253000000     -3.0254000000 
  C52           4.1749000000      0.0238000000      4.3182000000 
  C53           3.0306000000     -0.3605000000      4.8952000000 
  C54           2.0967000000     -1.2411000000      4.1659000000 
  C55          -4.2810000000      2.5991000000     -0.5952000000 
  C56          -4.8666000000      3.2877000000      0.3907000000 
  C57          -5.2994000000      2.5930000000      1.6191000000 
  C58          -8.2865000000     -2.2685000000      0.6374000000 
  C59          -8.2938000000     -3.5882000000      0.4182000000 
  C60          -7.0189000000     -4.3238000000      0.3062000000 
  C61          -2.6648000000     -3.3601000000      4.1716000000 
  C62          -2.1508000000     -2.3896000000      4.9348000000 
  C63          -2.2540000000     -0.9820000000      4.5043000000 
  C64           1.9619000000      4.5673000000      4.5753000000 
  C65           1.0559000000      4.9358000000      3.5809000000 
  C66           1.1413000000      4.3732000000      2.2966000000 
  C67           2.1371000000      3.4214000000      2.0244000000 
  C68           3.0494000000      3.0769000000      3.0146000000 
  C69           2.9636000000      3.6412000000      4.2909000000 
  C70           0.1974000000      4.8470000000      1.2663000000 
  N71           0.5365000000      4.7779000000     -0.0639000000 
  S72          -0.2560000000      5.8831000000     -1.1213000000 
  O73          -1.6820000000      5.5493000000     -1.2209000000 
  O74           0.1260000000      7.2213000000     -0.6700000000 
  C75           0.5665000000      5.4280000000     -2.6690000000 
  C76          -0.2032000000      4.9145000000     -3.7072000000 
  C77           0.4815000000      4.5805000000     -4.8769000000 
  C78           1.8608000000      4.7675000000     -4.9295000000 
  C79           2.5174000000      5.2864000000     -3.8098000000 
  N80           1.8787000000      5.6224000000     -2.6852000000 
  N81          -1.1142000000      2.5632000000      2.3093000000 
  C82          -1.5212000000      2.7820000000      3.5577000000 
  C83          -2.2719000000      3.9801000000      3.6151000000 
  C84          -2.2889000000      4.4911000000      2.3311000000 
  C85          -1.4727000000      3.6511000000      1.5021000000 
  H86          -1.3506000000     -5.4058000000     -1.4386000000 
  H87          -0.8035000000     -7.7335000000     -1.6063000000 
  H88           3.3120000000     -6.9498000000     -0.6231000000 
  H89           4.0235000000     -4.5946000000     -0.0949000000 
  H90           1.5838000000     -8.5327000000     -1.2084000000 
  H91           0.4844000000     -3.6312000000     -3.5629000000 
  H92          -4.6886000000     -2.0932000000     -2.0073000000 
  H93          -4.4153000000     -2.7613000000     -4.3846000000 
  H94          -0.5122000000     -4.0061000000     -5.7047000000 
  H95          -2.9680000000     -3.5738000000     -6.1227000000 
  H96           6.6545000000     -1.4397000000     -0.8270000000 
  H97           5.0680000000     -3.9677000000      2.3148000000 
  H98           3.8941000000      1.1749000000      0.7540000000 
  H99           4.3532000000     -1.6912000000     -2.4523000000 
  H100          5.4230000000     -0.0850000000      2.4905000000 
  H101          1.7020000000     -2.3062000000      2.4124000000 
  H102         -3.5958000000      0.6100000000     -1.2721000000 
  H103         -5.4375000000      0.7714000000      2.6465000000 
  H104         -7.0316000000     -0.4802000000      0.9442000000 
  H105         -4.9287000000     -4.2201000000      0.3230000000 
  H106         -3.7054000000     -3.8315000000      2.2834000000 
  H107         -2.9094000000      0.3570000000      3.0407000000 
  H108          8.8857000000     -2.6128000000     -0.5834000000 
  H109          9.1685000000     -4.3780000000      1.0551000000 
  H110          7.2099000000     -5.0649000000      2.5431000000 
  H111          3.9500000000      3.0434000000     -0.9596000000 
  H112          4.1652000000      2.5270000000     -3.3186000000 
  H113          4.3733000000      0.0975000000     -4.0792000000 
  H114          4.8639000000      0.6648000000      4.8528000000 
  H115          2.7914000000     -0.0346000000      5.8992000000 
  H116          1.1804000000     -1.5663000000      4.6420000000 
  H117         -3.9674000000      3.1069000000     -1.4978000000 
  H118         -5.0233000000      4.3538000000      0.2907000000 
  H119         -5.7751000000      3.1522000000      2.4142000000 
  H120         -9.2199000000     -1.7260000000      0.7145000000 
  H121         -9.2323000000     -4.1177000000      0.3163000000 
  H122         -7.0275000000     -5.3883000000      0.1105000000 
  H123         -2.5839000000     -4.3942000000      4.4805000000 
  H124         -1.6533000000     -2.6340000000      5.8643000000 
  H125         -1.8207000000     -0.2022000000      5.1163000000 
  H126          1.8920000000      5.0147000000      5.5621000000 
  H127          0.2937000000      5.6794000000      3.7905000000 
  H128          2.1975000000      2.9606000000      1.0452000000 
  H129          3.8414000000      2.3735000000      2.7908000000 
  H130          3.6807000000      3.3599000000      5.0563000000 
  H131         -0.2531000000      5.8038000000      1.5119000000 
  H132         -1.2652000000      4.7527000000     -3.5798000000 
  H133         -0.0555000000      4.1656000000     -5.7236000000 
  H134          2.4274000000      4.5083000000     -5.8177000000 
  H135          3.5942000000      5.4354000000     -3.8135000000 
  H136         -0.5551000000      1.7250000000      2.0225000000 
  H137         -1.2644000000      2.0962000000      4.3530000000 
  H138         -2.7305000000      4.3938000000      4.5015000000 
  H139         -2.7793000000      5.3895000000      1.9809000000 
  H140         -1.6443000000      3.4778000000      0.4461000000 
  S141         -0.2920000000      1.5691000000     -1.6128000000 
  O142          0.9889000000      2.1998000000     -1.1716000000 
  C143          0.1655000000      0.6501000000     -3.1822000000 
  O144         -1.3332000000      2.5014000000     -2.0683000000 
  F145          1.0975000000     -0.2830000000     -2.9719000000 
  F146         -0.9259000000      0.0580000000     -3.6831000000 
  F147          0.6340000000      1.5214000000     -4.0891000000 
  H148          0.7995000000      3.8730000000     -0.4939000000 
   
  principal moments of inertia:
        amu*angstrom^2:    22976.61061    23473.01093    30314.07494
                g*cm^2: 3.81535548E-36 3.89778468E-36 5.03376994E-36
   
  rotational constants:
               cm^(-1):      0.00073369      0.00071817      0.00055610
                   GHz:      0.02199537      0.02153022      0.01667143
   
  Molecular weight:    1308.28 amu
   
  Stoichiometry: Si2C73PN4H56S2O7F3
[running at reduced cpu priority]
  Molecular Point Group: C1      
  Point Group used: C1
  
  nuclear repulsion energy.......   20899.165411778 hartrees
 
 Non-default options chosen:
   SCF calculation type: DFT(m06-2x)                 
   DFT=M06-2X
   Solvation energy will be computed using PBF
     -solute cavity energy will not be included
     -surface area terms will not be included
   Highest accuracy cutoffs used in SCF
   Solvent: other                                                           
   Internal dielectric constant:    1.000
   Continuum dielectric constant:   2.380
   Solvent probe molecule radius:   2.760
  
 Temporary integer options set:
     73=  2
  
  atom       vdw   vdw2    cov     mass  grid  daf  charge   basis
  C1        1.949  1.900  0.770   12.000    Y    Y      Y    6-31g**
  C2        1.949  1.900  0.770   12.000    Y    Y      Y    6-31g**
  C3        1.949  1.900  0.770   12.000    Y    Y      Y    6-31g**
  C4        1.949  1.900  0.770   12.000    Y    Y      Y    6-31g**
  C5        1.949  1.900  0.770   12.000    Y    Y      Y    6-31g**
  C6        1.949  1.900  0.770   12.000    Y    Y      Y    6-31g**
  C7        1.949  1.900  0.770   12.000    Y    Y      Y    6-31g**
  C8        1.949  1.900  0.770   12.000    Y    Y      Y    6-31g**
  C9        1.949  1.900  0.770   12.000    Y    Y      Y    6-31g**
  C10       1.949  1.900  0.770   12.000    Y    Y      Y    6-31g**
  C11       1.949  1.900  0.770   12.000    Y    Y      Y    6-31g**
  O12       1.702  1.600  0.730   15.995    Y    Y      Y    6-31g**
  Si13      2.217  2.147  1.110   27.977    Y    Y      Y    6-31g**
  C14       1.949  1.900  0.770   12.000    Y    Y      Y    6-31g**
  C15       1.949  1.900  0.770   12.000    Y    Y      Y    6-31g**
  C16       1.949  1.900  0.770   12.000    Y    Y      Y    6-31g**
  C17       1.949  1.900  0.770   12.000    Y    Y      Y    6-31g**
  C18       1.949  1.900  0.770   12.000    Y    Y      Y    6-31g**
  C19       1.949  1.900  0.770   12.000    Y    Y      Y    6-31g**
  C20       1.949  1.900  0.770   12.000    Y    Y      Y    6-31g**
  Si21      2.217  2.147  1.110   27.977    Y    Y      Y    6-31g**
  O22       1.702  1.600  0.730   15.995    Y    Y      Y    6-31g**
  C23       1.949  1.900  0.770   12.000    Y    Y      Y    6-31g**
  C24       1.949  1.900  0.770   12.000    Y    Y      Y    6-31g**
  P25       2.147  2.074  1.060   30.974    Y    Y      Y    6-31g**
  O26       1.702  1.600  0.730   15.995    Y    Y      Y    6-31g**
  N27       1.831  1.600  0.750   14.003    Y    Y      Y    6-31g**
  C28       1.949  1.900  0.770   12.000    Y    Y      Y    6-31g**
  C29       1.949  1.900  0.770   12.000    Y    Y      Y    6-31g**
  C30       1.949  1.900  0.770   12.000    Y    Y      Y    6-31g**
  C31       1.949  1.900  0.770   12.000    Y    Y      Y    6-31g**
  C32       1.949  1.900  0.770   12.000    Y    Y      Y    6-31g**
  C33       1.949  1.900  0.770   12.000    Y    Y      Y    6-31g**
  C34       1.949  1.900  0.770   12.000    Y    Y      Y    6-31g**
  C35       1.949  1.900  0.770   12.000    Y    Y      Y    6-31g**
  C36       1.949  1.900  0.770   12.000    Y    Y      Y    6-31g**
  C37       1.949  1.900  0.770   12.000    Y    Y      Y    6-31g**
  C38       1.949  1.900  0.770   12.000    Y    Y      Y    6-31g**
  C39       1.949  1.900  0.770   12.000    Y    Y      Y    6-31g**
  C40       1.949  1.900  0.770   12.000    Y    Y      Y    6-31g**
  C41       1.949  1.900  0.770   12.000    Y    Y      Y    6-31g**
  C42       1.949  1.900  0.770   12.000    Y    Y      Y    6-31g**
  C43       1.949  1.900  0.770   12.000    Y    Y      Y    6-31g**
  C44       1.949  1.900  0.770   12.000    Y    Y      Y    6-31g**
  C45       1.949  1.900  0.770   12.000    Y    Y      Y    6-31g**
  C46       1.949  1.900  0.770   12.000    Y    Y      Y    6-31g**
  C47       1.949  1.900  0.770   12.000    Y    Y      Y    6-31g**
  C48       1.949  1.900  0.770   12.000    Y    Y      Y    6-31g**
  C49       1.949  1.900  0.770   12.000    Y    Y      Y    6-31g**
  C50       1.949  1.900  0.770   12.000    Y    Y      Y    6-31g**
  C51       1.949  1.900  0.770   12.000    Y    Y      Y    6-31g**
  C52       1.949  1.900  0.770   12.000    Y    Y      Y    6-31g**
  C53       1.949  1.900  0.770   12.000    Y    Y      Y    6-31g**
  C54       1.949  1.900  0.770   12.000    Y    Y      Y    6-31g**
  C55       1.949  1.900  0.770   12.000    Y    Y      Y    6-31g**
  C56       1.949  1.900  0.770   12.000    Y    Y      Y    6-31g**
  C57       1.949  1.900  0.770   12.000    Y    Y      Y    6-31g**
  C58       1.949  1.900  0.770   12.000    Y    Y      Y    6-31g**
  C59       1.949  1.900  0.770   12.000    Y    Y      Y    6-31g**
  C60       1.949  1.900  0.770   12.000    Y    Y      Y    6-31g**
  C61       1.949  1.900  0.770   12.000    Y    Y      Y    6-31g**
  C62       1.949  1.900  0.770   12.000    Y    Y      Y    6-31g**
  C63       1.949  1.900  0.770   12.000    Y    Y      Y    6-31g**
  C64       1.949  1.900  0.770   12.000    Y    Y      Y    6-31g**
  C65       1.949  1.900  0.770   12.000    Y    Y      Y    6-31g**
  C66       1.949  1.900  0.770   12.000    Y    Y      Y    6-31g**
  C67       1.949  1.900  0.770   12.000    Y    Y      Y    6-31g**
  C68       1.949  1.900  0.770   12.000    Y    Y      Y    6-31g**
  C69       1.949  1.900  0.770   12.000    Y    Y      Y    6-31g**
  C70       1.949  1.900  0.770   12.000    Y    Y      Y    6-31g**
  N71       1.831  1.600  0.750   14.003    Y    Y      Y    6-31g**
  S72       2.070  1.900  1.020   31.972    Y    Y      Y    6-31g**
  O73       1.702  1.600  0.730   15.995    Y    Y      Y    6-31g**
  O74       1.702  1.600  0.730   15.995    Y    Y      Y    6-31g**
  C75       1.949  1.900  0.770   12.000    Y    Y      Y    6-31g**
  C76       1.949  1.900  0.770   12.000    Y    Y      Y    6-31g**
  C77       1.949  1.900  0.770   12.000    Y    Y      Y    6-31g**
  C78       1.949  1.900  0.770   12.000    Y    Y      Y    6-31g**
  C79       1.949  1.900  0.770   12.000    Y    Y      Y    6-31g**
  N80       1.831  1.600  0.750   14.003    Y    Y      Y    6-31g**
  N81       1.831  1.600  0.750   14.003    Y    Y      Y    6-31g**
  C82       1.949  1.900  0.770   12.000    Y    Y      Y    6-31g**
  C83       1.949  1.900  0.770   12.000    Y    Y      Y    6-31g**
  C84       1.949  1.900  0.770   12.000    Y    Y      Y    6-31g**
  C85       1.949  1.900  0.770   12.000    Y    Y      Y    6-31g**
  H86       1.597  1.150  0.320    1.008    Y    Y      Y    6-31g**
  H87       1.597  1.150  0.320    1.008    Y    Y      Y    6-31g**
  H88       1.597  1.150  0.320    1.008    Y    Y      Y    6-31g**
  H89       1.597  1.150  0.320    1.008    Y    Y      Y    6-31g**
  H90       1.597  1.150  0.320    1.008    Y    Y      Y    6-31g**
  H91       1.597  1.150  0.320    1.008    Y    Y      Y    6-31g**
  H92       1.597  1.150  0.320    1.008    Y    Y      Y    6-31g**
  H93       1.597  1.150  0.320    1.008    Y    Y      Y    6-31g**
  H94       1.597  1.150  0.320    1.008    Y    Y      Y    6-31g**
  H95       1.597  1.150  0.320    1.008    Y    Y      Y    6-31g**
  H96       1.597  1.150  0.320    1.008    Y    Y      Y    6-31g**
  H97       1.597  1.150  0.320    1.008    Y    Y      Y    6-31g**
  H98       1.597  1.150  0.320    1.008    Y    Y      Y    6-31g**
  H99       1.597  1.150  0.320    1.008    Y    Y      Y    6-31g**
  H100      1.597  1.150  0.320    1.008    Y    Y      Y    6-31g**
  H101      1.597  1.150  0.320    1.008    Y    Y      Y    6-31g**
  H102      1.597  1.150  0.320    1.008    Y    Y      Y    6-31g**
  H103      1.597  1.150  0.320    1.008    Y    Y      Y    6-31g**
  H104      1.597  1.150  0.320    1.008    Y    Y      Y    6-31g**
  H105      1.597  1.150  0.320    1.008    Y    Y      Y    6-31g**
  H106      1.597  1.150  0.320    1.008    Y    Y      Y    6-31g**
  H107      1.597  1.150  0.320    1.008    Y    Y      Y    6-31g**
  H108      1.597  1.150  0.320    1.008    Y    Y      Y    6-31g**
  H109      1.597  1.150  0.320    1.008    Y    Y      Y    6-31g**
  H110      1.597  1.150  0.320    1.008    Y    Y      Y    6-31g**
  H111      1.597  1.150  0.320    1.008    Y    Y      Y    6-31g**
  H112      1.597  1.150  0.320    1.008    Y    Y      Y    6-31g**
  H113      1.597  1.150  0.320    1.008    Y    Y      Y    6-31g**
  H114      1.597  1.150  0.320    1.008    Y    Y      Y    6-31g**
  H115      1.597  1.150  0.320    1.008    Y    Y      Y    6-31g**
  H116      1.597  1.150  0.320    1.008    Y    Y      Y    6-31g**
  H117      1.597  1.150  0.320    1.008    Y    Y      Y    6-31g**
  H118      1.597  1.150  0.320    1.008    Y    Y      Y    6-31g**
  H119      1.597  1.150  0.320    1.008    Y    Y      Y    6-31g**
  H120      1.597  1.150  0.320    1.008    Y    Y      Y    6-31g**
  H121      1.597  1.150  0.320    1.008    Y    Y      Y    6-31g**
  H122      1.597  1.150  0.320    1.008    Y    Y      Y    6-31g**
  H123      1.597  1.150  0.320    1.008    Y    Y      Y    6-31g**
  H124      1.597  1.150  0.320    1.008    Y    Y      Y    6-31g**
  H125      1.597  1.150  0.320    1.008    Y    Y      Y    6-31g**
  H126      1.597  1.150  0.320    1.008    Y    Y      Y    6-31g**
  H127      1.597  1.150  0.320    1.008    Y    Y      Y    6-31g**
  H128      1.597  1.150  0.320    1.008    Y    Y      Y    6-31g**
  H129      1.597  1.150  0.320    1.008    Y    Y      Y    6-31g**
  H130      1.597  1.150  0.320    1.008    Y    Y      Y    6-31g**
  H131      1.597  1.150  0.320    1.008    Y    Y      Y    6-31g**
  H132      1.597  1.150  0.320    1.008    Y    Y      Y    6-31g**
  H133      1.597  1.150  0.320    1.008    Y    Y      Y    6-31g**
  H134      1.597  1.150  0.320    1.008    Y    Y      Y    6-31g**
  H135      1.597  1.150  0.320    1.008    Y    Y      Y    6-31g**
  H136      1.597  1.150  0.320    1.008    Y    Y      Y    6-31g**
  H137      1.597  1.150  0.320    1.008    Y    Y      Y    6-31g**
  H138      1.597  1.150  0.320    1.008    Y    Y      Y    6-31g**
  H139      1.597  1.150  0.320    1.008    Y    Y      Y    6-31g**
  H140      1.597  1.150  0.320    1.008    Y    Y      Y    6-31g**
  S141      2.070  1.900  1.020   31.972    Y    Y      Y    6-31g**
  O142      1.702  1.600  0.730   15.995    Y    Y      Y    6-31g**
  C143      1.949  1.900  0.770   12.000    Y    Y      Y    6-31g**
  O144      1.702  1.600  0.730   15.995    Y    Y      Y    6-31g**
  F145      1.736  1.682  0.720   18.998    Y    Y      Y    6-31g**
  F146      1.736  1.682  0.720   18.998    Y    Y      Y    6-31g**
  F147      1.736  1.682  0.720   18.998    Y    Y      Y    6-31g**
  H148      1.597  1.150  0.320    1.008    Y    Y      Y    6-31g**
  
  Peak memory usage:    768 Mb
  
  end of program pre
   
 Time(pre)  user:        1.0  user+sys:        1.0  wallclock:        2.7
  
  start of program onee
  
  smallest eigenvalue of S:    2.314E-04
  number of canonical orbitals.....         1673
  Peak memory usage:    900 Mb
  
  end of program onee
   
 Time(onee)  user:       20.1  user+sys:       20.1  wallclock:       44.0
  
  start of program hfig
  
  initial wavefunction generated automatically from atomic wavefunctions
 
  Irreducible     Total no   No of occupied orbitals 
  representation  orbitals   Shell_1  Shell_2    ...
  No Symm         1673        340
  ------------------------
  Orbital occupation/shell    1.000
 
  Peak memory usage:    833 Mb
  
  end of program hfig
   
 Time(hfig)  user:       39.0  user+sys:       39.0  wallclock:       49.6
  
  start of program probe
  
  Peak memory usage:    826 Mb
  
  end of program probe
   
 Time(probe)  user:       20.2  user+sys:       20.2  wallclock:       21.8
  
  start of program grid
  
   grid     grid set  grid #  grid sym
  ------    --------  ------  --------
  coarse        0        0        1
  medium        2        1        1
  fine          0        0        1
  ultrafine     4        2        1
  charge       -1        3        1
  gradient      4        2        1
  density       0        0        1
  DFT-fine    -13        4        1
  DFT-med.    -13        4        1
  DFT-grad    -13        4        1
  DFT-der2      0        0        1
  DFT-cphf      0        0        1
  LMP2-enrg     4        2        1
  LMP2-grad     2        1        1
  DFT-cphf2     0        0        1
  PBF-dens      0        0        1
  plotting      0        0        1
  Rel-grad    -17        0        1
  
  number of gridpoints: 
     atom        C1       C2       C3       C4       C5       C6       C7
  grid # 1       97      101       94      102      100       96       93
  grid # 2      338      360      336      366      358      336      335
  grid # 3       33       29       43       48       16       46       27
  grid # 4    48124    48124    48124    48124    48124    48124    48124
   
  number of gridpoints: 
     atom        C8       C9      C10      C11      O12     Si13      C14
  grid # 1       94       97      100      100      109      476      101
  grid # 2      336      357      354      359      432      476      354
  grid # 3       49       14       10        8       27        7        7
  grid # 4    48124    48124    48124    48124    47716    38542    48124
   
  number of gridpoints: 
     atom       C15      C16      C17      C18      C19      C20     Si21
  grid # 1       97      101       96       94       97       99      471
  grid # 2      352      363      334      329      338      361      471
  grid # 3       19       24       16       16       34        9        8
  grid # 4    48124    48124    48124    48124    48124    48124    38542
   
  number of gridpoints: 
     atom       O22      C23      C24      P25      O26      N27      C28
  grid # 1      112       93       93      450      117      109       99
  grid # 2      438      338      338      450      452      401      358
  grid # 3       55       31       38        6       67       21       10
  grid # 4    47716    48124    48124    38640    47716    47928    48124
   
  number of gridpoints: 
     atom       C29      C30      C31      C32      C33      C34      C35
  grid # 1       99      101       99      102      100       92       94
  grid # 2      356      359      357      359      359      337      335
  grid # 3        7       10       10       18       19       29       19
  grid # 4    48124    48124    48124    48124    48124    48124    48124
   
  number of gridpoints: 
     atom       C36      C37      C38      C39      C40      C41      C42
  grid # 1       92       94       92       96       92       94       93
  grid # 2      335      331      333      335      335      331      338
  grid # 3       20       12       16       18       24       12       39
  grid # 4    48124    48124    48124    48124    48124    48124    48124
   
  number of gridpoints: 
     atom       C43      C44      C45      C46      C47      C48      C49
  grid # 1       95       93       95       94       94       93       94
  grid # 2      335      335      334      335      335      335      332
  grid # 3       27       34       22       45       47       37       29
  grid # 4    48124    48124    48124    48124    48124    48124    48124
   
  number of gridpoints: 
     atom       C50      C51      C52      C53      C54      C55      C56
  grid # 1       93       92       93       93       93       93       93
  grid # 2      333      333      331      334      334      331      332
  grid # 3       30       20       27       35       29       28       28
  grid # 4    48124    48124    48124    48124    48124    48124    48124
   
  number of gridpoints: 
     atom       C57      C58      C59      C60      C61      C62      C63
  grid # 1       92       94       94       94       93       93       93
  grid # 2      333      336      336      336      336      335      334
  grid # 3       24       46       47       42       41       35       34
  grid # 4    48124    48124    48124    48124    48124    48124    48124
   
  number of gridpoints: 
     atom       C64      C65      C66      C67      C68      C69      C70
  grid # 1       96       96      101       96       96       96       91
  grid # 2      333      334      362      334      335      335      320
  grid # 3       41       32       31       32       41       42        6
  grid # 4    48124    48124    48124    48124    48124    48124    48124
   
  number of gridpoints: 
     atom       N71      S72      O73      O74      C75      C76      C77
  grid # 1       97      444      120      123       98       96       96
  grid # 2      350      444      482      508      357      327      327
  grid # 3       24       12      149      328       30       33       31
  grid # 4    47928    48492    47716    47716    48124    48124    48124
   
  number of gridpoints: 
     atom       C78      C79      N80      N81      C82      C83      C84
  grid # 1       96       96      113       97       94       93       93
  grid # 2      331      338      424      338      326      326      328
  grid # 3       33       35      112       12        9       12        7
  grid # 4    48124    48124    47928    47928    48124    48124    48124
   
  number of gridpoints: 
     atom       C85      H86      H87      H88      H89      H90      H91
  grid # 1       90      112      118      118      110      118      114
  grid # 2      324      433      451      446      425      453      434
  grid # 3        7      219      418      359      174      425      235
  grid # 4    48124    48426    48426    48426    48426    48426    48426
   
  number of gridpoints: 
     atom       H92      H93      H94      H95      H96      H97      H98
  grid # 1      113      118      118      118      111      112      106
  grid # 2      428      442      449      449      436      437      410
  grid # 3      207      361      407      416      241      264       82
  grid # 4    48426    48426    48426    48426    48426    48426    48426
   
  number of gridpoints: 
     atom       H99     H100     H101     H102     H103     H104     H105
  grid # 1      112      111      109      109      112      112      110
  grid # 2      435      435      425      423      432      432      426
  grid # 3      257      249      179      145      236      226      187
  grid # 4    48426    48426    48426    48426    48426    48426    48426
   
  number of gridpoints: 
     atom      H106     H107     H108     H109     H110     H111     H112
  grid # 1      111      106      118      118      118      114      114
  grid # 2      430      415      453      453      452      434      438
  grid # 3      213       93      420      424      420      251      260
  grid # 4    48426    48426    48426    48426    48426    48426    48426
   
  number of gridpoints: 
     atom      H113     H114     H115     H116     H117     H118     H119
  grid # 1      117      115      117      114      113      115      117
  grid # 2      451      442      449      437      437      443      448
  grid # 3      385      309      373      257      257      327      359
  grid # 4    48426    48426    48426    48426    48426    48426    48426
   
  number of gridpoints: 
     atom      H120     H121     H122     H123     H124     H125     H126
  grid # 1      118      118      118      118      117      113      118
  grid # 2      453      453      452      451      449      433      450
  grid # 3      419      425      419      413      374      253      407
  grid # 4    48426    48426    48426    48426    48426    48426    48426
   
  number of gridpoints: 
     atom      H127     H128     H129     H130     H131     H132     H133
  grid # 1      112      106      109      116      104      111      117
  grid # 2      434      408      421      441      415      433      450
  grid # 3      262       78      159      311      139      242      384
  grid # 4    48426    48426    48426    48426    48426    48426    48426
   
  number of gridpoints: 
     atom      H134     H135     H136     H137     H138     H139     H140
  grid # 1      117      117       99      111      116      113      106
  grid # 2      450      445      402      434      459      443      411
  grid # 3      392      371       79      220      407      282       67
  grid # 4    48426    48426    48426    48426    48426    48426    48426
   
  number of gridpoints: 
     atom      S141     O142     C143     O144     F145     F146     F147
  grid # 1      428      115       90      117      517      526      527
  grid # 2      428      454      321      468      517      526      527
  grid # 3        7       46        7       55       95      165      141
  grid # 4    48492    47716    48124    47716    47062    47062    47062
   
  number of gridpoints: 
     atom      H148    total
  grid # 1       97    18366
  grid # 2      394    57823
  grid # 3       53    19044
  grid # 4    48426  7104526
   
  Peak memory usage:    795 Mb
  
  end of program grid
   
 Time(grid)  user:     1127.6  user+sys:     1127.6  wallclock:     1186.4
  
  start of program rwr
  
  Peak memory usage:    814 Mb
  
  end of program rwr
   
 Time(rwr)  user:       71.1  user+sys:       71.1  wallclock:       80.3
  
  start of program scf
  
 number of electrons..........        680
 number of alpha electrons....        340
 number of beta electrons.....        340
 number of orbitals, total....       1673
 number of doubly-occ'd orbs..        340
 number of open shell orbs....          0
 number of occupied orbitals..        340
 number of virtual orbitals...       1333
 number of hamiltonians.......          1
 number of shells.............          1
 SCF type: DFT=M06-2X
 Energy computed with NOPS off.
  
       i  u  d  i  g                   
       t  p  i  c  r                                 RMS    maximum
       e  d  i  u  i                       energy  density   DIIS  
       r  t  s  t  d       total energy    change  change    error 
  
etot    1  N  N  1  U   -5562.71679005724           4.0E-03  9.9E-02
etot    2  N  Y  1  U   -5529.81559618886 -3.3E+01  1.9E-02  1.4E-01
etot    3  N  Y  1  U   -5284.10209189808 -2.5E+02  1.9E-02  4.4E-01
  
  ** Halting job in response to a termination signal **
  
