Job jag_Toru-SiPh3-NTf-Type-I-E-Sulfonyl-1-chkp-scan-unrestrained.SPE started on tethys at Thu Feb 23 13:35:05 2017
jobid: tethys-0-58aee507

  +--------------------------------------------------------------------+
  |  Jaguar version 9.5, release  11                                   |
  |                                                                    |
  |  Copyright Schrodinger, Inc.                                       |
  |  All Rights Reserved.                                              |
  |                                                                    |
  |  The following have contributed to Jaguar (listed alphabetically): |
  |  Mike Beachy, Art Bochevarov, Dale Braden, Yixiang Cao,            |
  |  Chris Cortis, Rich Friesner, Bill Goddard, Hod Greeley,           |
  |  Tom Hughes, Leif Jacobson, Jean-Marc Langlois,                    |
  |  Daniel Mainz, Rob Murphy, Dean Philipp, Tom Pollard,              |
  |  Murco Ringnalda, Mark Watson, Haoyu Yu.                           |
  |                                                                    |
  |  Use of this program should be acknowledged in publications as:    |
  |                                                                    |
  |  Jaguar, version 9.5, Schrodinger, Inc., New York, NY, 2017.       |
  |                                                                    |
  |  A. D. Bochevarov, E. Harder, T. F. Hughes, J. R. Greenwood,       |
  |  D. A. Braden, D. M. Philipp, D. Rinaldo, M. D. Halls,             |
  |  J. Zhang, R. A. Friesner, "Jaguar: A High-Performance Quantum     |
  |  Chemistry Software Program with Strengths in Life and Materials   |
  |  Sciences", Int. J. Quantum Chem., 2013, 113(18), 2110-2142.       |
  +--------------------------------------------------------------------+
  
  start of program pre
  
  Job name: jag_Toru-SiPh3-NTf-Type-I-E-Sulfonyl-1-chkp-scan-unrestrained.SPE
  Executables used: /usr/local/shared/schrodinger/current/jaguar-v9.5/bin/Linux-x86_64
  Temporary files : /scratch/ab2144/jag_Toru-SiPh3-NTf-Type-I-E-Sulfonyl-1-chkp-scan-unrestrained.SPE
  Maestro file (input):  jag_Toru-SiPh3-NTf-Type-I-E-Sulfonyl-1-chkp-scan-unrestrained.SPE.mae
  Maestro file (output): jag_Toru-SiPh3-NTf-Type-I-E-Sulfonyl-1-chkp-scan-unrestrained.SPE.01.mae
  
  basis set:             6-31g**                         
  net molecular charge:    0
  multiplicity:            1
  
  keygrid settings 
    wispc.....   7.500E-01
    ldens.....   0
    denspc....   7.500E-01
  
   grid     daf set  nls  grid set  Q type
  ------    -------  ---  --------  ------
  coarse       1      1       1        1
  medium       2      2       2        1
  fine         3      2       3        0
  ultrafine    4      2       4        1
  charge       0      1      -1        1
  gradient     5      2       4        1
  density      0      1       0        0
  DFT-fine     0      1     -13        0
  DFT-med.     0      1     -13        0
  DFT-grad     0      1     -13        0
  DFT-der2     0      1       0        0
  DFT-cphf     0      1       0        0
  LMP2-enrg    4      2       4        1
  LMP2-grad    5      2       2        1
  DFT-cphf2    0      1       0        0
  PBF-dens     0      1       0        0
  plotting     0      1       0        0
  Rel-grad     0      1     -17        0
  
  idftgrdm  100
  ndftgrdm   50    0    0
  idftgrdf  111
  ndftgrdf   85    0    0
  idftgrdg  111
  ndftgrdg   80    3    0
  idftgrdu  433
  ndftgrdu  105    0    0
  idftgrdd  433
  ndftgrdd  105    0    0
  idftgrdc  433
  ndftgrdc   26    0    0
  idftgrdp  433
  ndftgrdp   18    0    0
  
  number of basis functions....         1680
  
 Input geometry:
                                   angstroms
  atom               x                 y                 z
  C1            4.9463000000      3.8257000000      0.1726000000 
  C2            3.4579000000      3.8793000000      0.1197000000 
  C3            5.6478000000      4.8800000000      0.6043000000 
  C4            2.8301000000      4.9904000000      0.5633000000 
  C5            2.6468000000      2.7189000000     -0.3626000000 
  C6            3.6167000000      6.1545000000      1.0339000000 
  C7            1.3583000000      5.0378000000      0.6168000000 
  C8            4.9524000000      6.1027000000      1.0467000000 
  C9            1.2991000000      2.7375000000     -0.2235000000 
  C10           3.3106000000      1.5061000000     -0.9052000000 
  C11           0.6222000000      3.9796000000      0.2463000000 
  O12           0.5458000000      1.6648000000     -0.6424000000 
  Si13         -1.2314000000      4.0679000000      0.4286000000 
  C14           4.1026000000      1.5299000000     -2.0015000000 
  C15           3.1063000000      0.2284000000     -0.1733000000 
  C16           4.8673000000      0.3133000000     -2.3771000000 
  C17           4.2585000000      2.7294000000     -2.8618000000 
  C18           4.7627000000     -0.8033000000     -1.6446000000 
  C19           5.7618000000      0.3734000000     -3.5499000000 
  C20           3.8406000000     -0.8592000000     -0.4881000000 
  Si21          3.7119000000     -2.4757000000      0.4377000000 
  O22           2.1697000000      0.1872000000      0.8290000000 
  C23           5.0835000000      2.7074000000     -3.9155000000 
  C24           5.8611000000      1.4989000000     -4.2656000000 
  P25           0.6266000000      0.3166000000      0.3018000000 
  O26          -0.2666000000      0.3861000000      1.4965000000 
  N27           0.4703000000     -0.9187000000     -0.7468000000 
  C28          -1.6941000000      3.3744000000      2.0991000000 
  C29          -1.7544000000      5.8607000000      0.3179000000 
  C30          -2.0408000000      3.1381000000     -0.9700000000 
  C31           2.7889000000     -3.7172000000     -0.6013000000 
  C32           5.4516000000     -3.0693000000      0.7443000000 
  C33           2.8402000000     -2.2493000000      2.0703000000 
  C34          -2.9842000000      3.2549000000      2.4586000000 
  C35          -0.6338000000      3.0138000000      3.0734000000 
  C36          -2.5198000000      6.4317000000      1.2656000000 
  C37          -1.2768000000      6.6907000000     -0.8171000000 
  C38          -2.8583000000      2.0973000000     -0.7376000000 
  C39          -1.7891000000      3.5586000000     -2.3708000000 
  C40           2.4419000000     -4.9074000000     -0.0818000000 
  C41           2.4336000000     -3.4081000000     -2.0087000000 
  C42           6.3840000000     -2.2096000000      1.1909000000 
  C43           5.8406000000     -4.4723000000      0.4544000000 
  C44           3.4553000000     -1.6411000000      3.0993000000 
  C45           1.4274000000     -2.6749000000      2.2213000000 
  C46          -3.3416000000      2.7793000000      3.8107000000 
  C47          -2.3805000000      2.4754000000      4.6899000000 
  C48          -0.9611000000      2.5900000000      4.3002000000 
  C49          -2.9170000000      7.8507000000      1.1521000000 
  C50          -2.5020000000      8.5832000000      0.1132000000 
  C51          -1.6345000000      7.9768000000     -0.9146000000 
  C52          -3.5498000000      1.4300000000     -1.8583000000 
  C53          -3.3563000000      1.8450000000     -3.1140000000 
  C54          -2.4223000000      2.9544000000     -3.3838000000 
  C55           1.7181000000     -5.8982000000     -0.9043000000 
  C56           1.4103000000     -5.6175000000     -2.1755000000 
  C57           1.7888000000     -4.3135000000     -2.7552000000 
  C58           7.7707000000     -2.6641000000      1.4215000000 
  C59           8.1101000000     -3.9336000000      1.1728000000 
  C60           7.0990000000     -4.8801000000      0.6617000000 
  C61           2.7426000000     -1.4319000000      4.3768000000 
  C62           1.4750000000     -1.8359000000      4.5112000000 
  C63           0.7852000000     -2.4831000000      3.3792000000 
  C64          -1.2362000000     -4.9802000000      1.8017000000 
  C65          -2.1214000000     -4.0496000000      1.2668000000 
  C66          -3.1893000000     -3.5669000000      2.0453000000 
  C67          -3.3316000000     -4.0213000000      3.3700000000 
  C68          -2.4344000000     -4.9443000000      3.9008000000 
  C69          -1.3857000000     -5.4280000000      3.1163000000 
  C70          -4.2401000000     -2.7094000000      1.4754000000 
  N71          -4.2797000000     -2.4855000000      0.1250000000 
  S72          -5.7812000000     -2.0264000000     -0.5573000000 
  O73          -6.7543000000     -3.0244000000     -0.1107000000 
  O74          -6.0569000000     -0.6056000000     -0.2927000000 
  C75          -5.3816000000     -2.1969000000     -2.3169000000 
  C76          -5.7901000000     -1.1900000000     -3.1869000000 
  C77          -5.4851000000     -1.3728000000     -4.5361000000 
  C78          -4.7990000000     -2.5220000000     -4.9231000000 
  C79          -4.4461000000     -3.4597000000     -3.9487000000 
  N80          -4.7444000000     -3.3083000000     -2.6545000000 
  N81          -2.6068000000     -0.5307000000      2.4403000000 
  C82          -2.2675000000     -0.6401000000      3.7253000000 
  C83          -3.4262000000     -0.8590000000      4.5019000000 
  C84          -4.4949000000     -0.8679000000      3.6199000000 
  C85          -3.9779000000     -0.7424000000      2.2948000000 
  H86           5.4807000000      2.9323000000     -0.1197000000 
  H87           6.7286000000      4.8345000000      0.6412000000 
  H88           3.1124000000      7.0515000000      1.3716000000 
  H89           0.8849000000      5.9327000000      1.0004000000 
  H90           5.5262000000      6.9529000000      1.3921000000 
  H91           3.6985000000      3.6335000000     -2.6602000000 
  H92           5.3344000000     -1.6841000000     -1.9131000000 
  H93           6.3440000000     -0.4938000000     -3.8383000000 
  H94           5.1827000000      3.5912000000     -4.5326000000 
  H95           6.5202000000      1.5287000000     -5.1238000000 
  H96          -3.7777000000      3.5297000000      1.7748000000 
  H97           0.4111000000      3.0921000000      2.8053000000 
  H98          -2.8602000000      5.8782000000      2.1265000000 
  H99          -0.6036000000      6.2769000000     -1.5536000000 
  H100         -3.0333000000      1.7289000000      0.2617000000 
  H101         -1.0798000000      4.3417000000     -2.5898000000 
  H102          2.6863000000     -5.1567000000      0.9435000000 
  H103          2.6845000000     -2.4517000000     -2.4446000000 
  H104          6.1419000000     -1.1701000000      1.3715000000 
  H105          5.1199000000     -5.1786000000      0.0703000000 
  H106          4.4715000000     -1.2869000000      3.0134000000 
  H107          0.8952000000     -3.1103000000      1.3879000000 
  H108         -4.3829000000      2.6843000000      4.0899000000 
  H109         -2.6405000000      2.1287000000      5.6816000000 
  H110         -0.1864000000      2.3265000000      5.0085000000 
  H111         -3.5454000000      8.2954000000      1.9130000000 
  H112         -2.7912000000      9.6228000000      0.0299000000 
  H113         -1.2743000000      8.5800000000     -1.7380000000 
  H114         -4.2102000000      0.6019000000     -1.6581000000 
  H115         -3.8620000000      1.3523000000     -3.9343000000 
  H116         -2.2347000000      3.2632000000     -4.4040000000 
  H117          1.4383000000     -6.8516000000     -0.4753000000 
  H118          0.8797000000     -6.3420000000     -2.7795000000 
  H119          1.5295000000     -4.0860000000     -3.7810000000 
  H120          8.5112000000     -1.9659000000      1.7898000000 
  H121          9.1258000000     -4.2681000000      1.3399000000 
  H122          7.3800000000     -5.9038000000      0.4505000000 
  H123          3.2487000000     -0.9481000000      5.2021000000 
  H124          0.9492000000     -1.6797000000      5.4442000000 
  H125         -0.2477000000     -2.7827000000      3.4837000000 
  H126         -0.4275000000     -5.3535000000      1.1825000000 
  H127         -1.9895000000     -3.7397000000      0.2374000000 
  H128         -4.1596000000     -3.6649000000      3.9730000000 
  H129         -2.5608000000     -5.2932000000      4.9209000000 
  H130         -0.6895000000     -6.1536000000      3.5262000000 
  H131         -5.2255000000     -2.8533000000      1.9086000000 
  H132         -6.2985000000     -0.3081000000     -2.8171000000 
  H133         -5.7698000000     -0.6227000000     -5.2670000000 
  H134         -4.5325000000     -2.6921000000     -5.9607000000 
  H135         -3.9045000000     -4.3640000000     -4.2128000000 
  H136         -1.9040000000     -0.2792000000      1.7238000000 
  H137         -1.2363000000     -0.5277000000      4.0256000000 
  H138         -3.4491000000     -0.9865000000      5.5744000000 
  H139         -5.5426000000     -0.9935000000      3.8592000000 
  H140         -4.4943000000     -0.2881000000      1.4589000000 
  S141         -0.8195000000     -1.5584000000     -1.3384000000 
  O142         -2.1044000000     -1.0605000000     -0.7459000000 
  C143         -0.8588000000     -0.9307000000     -3.0978000000 
  O144         -0.7358000000     -3.0176000000     -1.4915000000 
  F145         -2.0501000000     -1.2112000000     -3.6558000000 
  F146         -0.6682000000      0.3898000000     -3.1306000000 
  F147          0.0978000000     -1.5219000000     -3.8197000000 
  H148         -3.4360000000     -2.0942000000     -0.3457000000 
   
  principal moments of inertia:
        amu*angstrom^2:    22282.61018    24175.59354    32105.56888
                g*cm^2: 3.70011401E-36 4.01445125E-36 5.33125448E-36
   
  rotational constants:
               cm^(-1):      0.00075654      0.00069730      0.00052507
                   GHz:      0.02268042      0.02090451      0.01574116
   
  Molecular weight:    1308.28 amu
   
  Stoichiometry: Si2C73PN4H56S2O7F3
[running at reduced cpu priority]
  Molecular Point Group: C1      
  Point Group used: C1
  
  nuclear repulsion energy.......   20764.547292941 hartrees
 
 Non-default options chosen:
   SCF calculation type: DFT(m06-2x)                 
   DFT=M06-2X
   Solvation energy will be computed using PBF
     -solute cavity energy will not be included
     -surface area terms will not be included
   Highest accuracy cutoffs used in SCF
   Solvent: other                                                           
   Internal dielectric constant:    1.000
   Continuum dielectric constant:   2.380
   Solvent probe molecule radius:   2.760
  
 Temporary integer options set:
     73=  2
  
  atom       vdw   vdw2    cov     mass  grid  daf  charge   basis
  C1        1.949  1.900  0.770   12.000    Y    Y      Y    6-31g**
  C2        1.949  1.900  0.770   12.000    Y    Y      Y    6-31g**
  C3        1.949  1.900  0.770   12.000    Y    Y      Y    6-31g**
  C4        1.949  1.900  0.770   12.000    Y    Y      Y    6-31g**
  C5        1.949  1.900  0.770   12.000    Y    Y      Y    6-31g**
  C6        1.949  1.900  0.770   12.000    Y    Y      Y    6-31g**
  C7        1.949  1.900  0.770   12.000    Y    Y      Y    6-31g**
  C8        1.949  1.900  0.770   12.000    Y    Y      Y    6-31g**
  C9        1.949  1.900  0.770   12.000    Y    Y      Y    6-31g**
  C10       1.949  1.900  0.770   12.000    Y    Y      Y    6-31g**
  C11       1.949  1.900  0.770   12.000    Y    Y      Y    6-31g**
  O12       1.702  1.600  0.730   15.995    Y    Y      Y    6-31g**
  Si13      2.217  2.147  1.110   27.977    Y    Y      Y    6-31g**
  C14       1.949  1.900  0.770   12.000    Y    Y      Y    6-31g**
  C15       1.949  1.900  0.770   12.000    Y    Y      Y    6-31g**
  C16       1.949  1.900  0.770   12.000    Y    Y      Y    6-31g**
  C17       1.949  1.900  0.770   12.000    Y    Y      Y    6-31g**
  C18       1.949  1.900  0.770   12.000    Y    Y      Y    6-31g**
  C19       1.949  1.900  0.770   12.000    Y    Y      Y    6-31g**
  C20       1.949  1.900  0.770   12.000    Y    Y      Y    6-31g**
  Si21      2.217  2.147  1.110   27.977    Y    Y      Y    6-31g**
  O22       1.702  1.600  0.730   15.995    Y    Y      Y    6-31g**
  C23       1.949  1.900  0.770   12.000    Y    Y      Y    6-31g**
  C24       1.949  1.900  0.770   12.000    Y    Y      Y    6-31g**
  P25       2.147  2.074  1.060   30.974    Y    Y      Y    6-31g**
  O26       1.702  1.600  0.730   15.995    Y    Y      Y    6-31g**
  N27       1.831  1.600  0.750   14.003    Y    Y      Y    6-31g**
  C28       1.949  1.900  0.770   12.000    Y    Y      Y    6-31g**
  C29       1.949  1.900  0.770   12.000    Y    Y      Y    6-31g**
  C30       1.949  1.900  0.770   12.000    Y    Y      Y    6-31g**
  C31       1.949  1.900  0.770   12.000    Y    Y      Y    6-31g**
  C32       1.949  1.900  0.770   12.000    Y    Y      Y    6-31g**
  C33       1.949  1.900  0.770   12.000    Y    Y      Y    6-31g**
  C34       1.949  1.900  0.770   12.000    Y    Y      Y    6-31g**
  C35       1.949  1.900  0.770   12.000    Y    Y      Y    6-31g**
  C36       1.949  1.900  0.770   12.000    Y    Y      Y    6-31g**
  C37       1.949  1.900  0.770   12.000    Y    Y      Y    6-31g**
  C38       1.949  1.900  0.770   12.000    Y    Y      Y    6-31g**
  C39       1.949  1.900  0.770   12.000    Y    Y      Y    6-31g**
  C40       1.949  1.900  0.770   12.000    Y    Y      Y    6-31g**
  C41       1.949  1.900  0.770   12.000    Y    Y      Y    6-31g**
  C42       1.949  1.900  0.770   12.000    Y    Y      Y    6-31g**
  C43       1.949  1.900  0.770   12.000    Y    Y      Y    6-31g**
  C44       1.949  1.900  0.770   12.000    Y    Y      Y    6-31g**
  C45       1.949  1.900  0.770   12.000    Y    Y      Y    6-31g**
  C46       1.949  1.900  0.770   12.000    Y    Y      Y    6-31g**
  C47       1.949  1.900  0.770   12.000    Y    Y      Y    6-31g**
  C48       1.949  1.900  0.770   12.000    Y    Y      Y    6-31g**
  C49       1.949  1.900  0.770   12.000    Y    Y      Y    6-31g**
  C50       1.949  1.900  0.770   12.000    Y    Y      Y    6-31g**
  C51       1.949  1.900  0.770   12.000    Y    Y      Y    6-31g**
  C52       1.949  1.900  0.770   12.000    Y    Y      Y    6-31g**
  C53       1.949  1.900  0.770   12.000    Y    Y      Y    6-31g**
  C54       1.949  1.900  0.770   12.000    Y    Y      Y    6-31g**
  C55       1.949  1.900  0.770   12.000    Y    Y      Y    6-31g**
  C56       1.949  1.900  0.770   12.000    Y    Y      Y    6-31g**
  C57       1.949  1.900  0.770   12.000    Y    Y      Y    6-31g**
  C58       1.949  1.900  0.770   12.000    Y    Y      Y    6-31g**
  C59       1.949  1.900  0.770   12.000    Y    Y      Y    6-31g**
  C60       1.949  1.900  0.770   12.000    Y    Y      Y    6-31g**
  C61       1.949  1.900  0.770   12.000    Y    Y      Y    6-31g**
  C62       1.949  1.900  0.770   12.000    Y    Y      Y    6-31g**
  C63       1.949  1.900  0.770   12.000    Y    Y      Y    6-31g**
  C64       1.949  1.900  0.770   12.000    Y    Y      Y    6-31g**
  C65       1.949  1.900  0.770   12.000    Y    Y      Y    6-31g**
  C66       1.949  1.900  0.770   12.000    Y    Y      Y    6-31g**
  C67       1.949  1.900  0.770   12.000    Y    Y      Y    6-31g**
  C68       1.949  1.900  0.770   12.000    Y    Y      Y    6-31g**
  C69       1.949  1.900  0.770   12.000    Y    Y      Y    6-31g**
  C70       1.949  1.900  0.770   12.000    Y    Y      Y    6-31g**
  N71       1.831  1.600  0.750   14.003    Y    Y      Y    6-31g**
  S72       2.070  1.900  1.020   31.972    Y    Y      Y    6-31g**
  O73       1.702  1.600  0.730   15.995    Y    Y      Y    6-31g**
  O74       1.702  1.600  0.730   15.995    Y    Y      Y    6-31g**
  C75       1.949  1.900  0.770   12.000    Y    Y      Y    6-31g**
  C76       1.949  1.900  0.770   12.000    Y    Y      Y    6-31g**
  C77       1.949  1.900  0.770   12.000    Y    Y      Y    6-31g**
  C78       1.949  1.900  0.770   12.000    Y    Y      Y    6-31g**
  C79       1.949  1.900  0.770   12.000    Y    Y      Y    6-31g**
  N80       1.831  1.600  0.750   14.003    Y    Y      Y    6-31g**
  N81       1.831  1.600  0.750   14.003    Y    Y      Y    6-31g**
  C82       1.949  1.900  0.770   12.000    Y    Y      Y    6-31g**
  C83       1.949  1.900  0.770   12.000    Y    Y      Y    6-31g**
  C84       1.949  1.900  0.770   12.000    Y    Y      Y    6-31g**
  C85       1.949  1.900  0.770   12.000    Y    Y      Y    6-31g**
  H86       1.597  1.150  0.320    1.008    Y    Y      Y    6-31g**
  H87       1.597  1.150  0.320    1.008    Y    Y      Y    6-31g**
  H88       1.597  1.150  0.320    1.008    Y    Y      Y    6-31g**
  H89       1.597  1.150  0.320    1.008    Y    Y      Y    6-31g**
  H90       1.597  1.150  0.320    1.008    Y    Y      Y    6-31g**
  H91       1.597  1.150  0.320    1.008    Y    Y      Y    6-31g**
  H92       1.597  1.150  0.320    1.008    Y    Y      Y    6-31g**
  H93       1.597  1.150  0.320    1.008    Y    Y      Y    6-31g**
  H94       1.597  1.150  0.320    1.008    Y    Y      Y    6-31g**
  H95       1.597  1.150  0.320    1.008    Y    Y      Y    6-31g**
  H96       1.597  1.150  0.320    1.008    Y    Y      Y    6-31g**
  H97       1.597  1.150  0.320    1.008    Y    Y      Y    6-31g**
  H98       1.597  1.150  0.320    1.008    Y    Y      Y    6-31g**
  H99       1.597  1.150  0.320    1.008    Y    Y      Y    6-31g**
  H100      1.597  1.150  0.320    1.008    Y    Y      Y    6-31g**
  H101      1.597  1.150  0.320    1.008    Y    Y      Y    6-31g**
  H102      1.597  1.150  0.320    1.008    Y    Y      Y    6-31g**
  H103      1.597  1.150  0.320    1.008    Y    Y      Y    6-31g**
  H104      1.597  1.150  0.320    1.008    Y    Y      Y    6-31g**
  H105      1.597  1.150  0.320    1.008    Y    Y      Y    6-31g**
  H106      1.597  1.150  0.320    1.008    Y    Y      Y    6-31g**
  H107      1.597  1.150  0.320    1.008    Y    Y      Y    6-31g**
  H108      1.597  1.150  0.320    1.008    Y    Y      Y    6-31g**
  H109      1.597  1.150  0.320    1.008    Y    Y      Y    6-31g**
  H110      1.597  1.150  0.320    1.008    Y    Y      Y    6-31g**
  H111      1.597  1.150  0.320    1.008    Y    Y      Y    6-31g**
  H112      1.597  1.150  0.320    1.008    Y    Y      Y    6-31g**
  H113      1.597  1.150  0.320    1.008    Y    Y      Y    6-31g**
  H114      1.597  1.150  0.320    1.008    Y    Y      Y    6-31g**
  H115      1.597  1.150  0.320    1.008    Y    Y      Y    6-31g**
  H116      1.597  1.150  0.320    1.008    Y    Y      Y    6-31g**
  H117      1.597  1.150  0.320    1.008    Y    Y      Y    6-31g**
  H118      1.597  1.150  0.320    1.008    Y    Y      Y    6-31g**
  H119      1.597  1.150  0.320    1.008    Y    Y      Y    6-31g**
  H120      1.597  1.150  0.320    1.008    Y    Y      Y    6-31g**
  H121      1.597  1.150  0.320    1.008    Y    Y      Y    6-31g**
  H122      1.597  1.150  0.320    1.008    Y    Y      Y    6-31g**
  H123      1.597  1.150  0.320    1.008    Y    Y      Y    6-31g**
  H124      1.597  1.150  0.320    1.008    Y    Y      Y    6-31g**
  H125      1.597  1.150  0.320    1.008    Y    Y      Y    6-31g**
  H126      1.597  1.150  0.320    1.008    Y    Y      Y    6-31g**
  H127      1.597  1.150  0.320    1.008    Y    Y      Y    6-31g**
  H128      1.597  1.150  0.320    1.008    Y    Y      Y    6-31g**
  H129      1.597  1.150  0.320    1.008    Y    Y      Y    6-31g**
  H130      1.597  1.150  0.320    1.008    Y    Y      Y    6-31g**
  H131      1.597  1.150  0.320    1.008    Y    Y      Y    6-31g**
  H132      1.597  1.150  0.320    1.008    Y    Y      Y    6-31g**
  H133      1.597  1.150  0.320    1.008    Y    Y      Y    6-31g**
  H134      1.597  1.150  0.320    1.008    Y    Y      Y    6-31g**
  H135      1.597  1.150  0.320    1.008    Y    Y      Y    6-31g**
  H136      1.597  1.150  0.320    1.008    Y    Y      Y    6-31g**
  H137      1.597  1.150  0.320    1.008    Y    Y      Y    6-31g**
  H138      1.597  1.150  0.320    1.008    Y    Y      Y    6-31g**
  H139      1.597  1.150  0.320    1.008    Y    Y      Y    6-31g**
  H140      1.597  1.150  0.320    1.008    Y    Y      Y    6-31g**
  S141      2.070  1.900  1.020   31.972    Y    Y      Y    6-31g**
  O142      1.702  1.600  0.730   15.995    Y    Y      Y    6-31g**
  C143      1.949  1.900  0.770   12.000    Y    Y      Y    6-31g**
  O144      1.702  1.600  0.730   15.995    Y    Y      Y    6-31g**
  F145      1.736  1.682  0.720   18.998    Y    Y      Y    6-31g**
  F146      1.736  1.682  0.720   18.998    Y    Y      Y    6-31g**
  F147      1.736  1.682  0.720   18.998    Y    Y      Y    6-31g**
  H148      1.597  1.150  0.320    1.008    Y    Y      Y    6-31g**
  
  Peak memory usage:    768 Mb
  
  end of program pre
   
 Time(pre)  user:        0.9  user+sys:        0.9  wallclock:        1.8
  
  start of program onee
  
  smallest eigenvalue of S:    2.212E-04
  number of canonical orbitals.....         1673
  Peak memory usage:    900 Mb
  
  end of program onee
   
 Time(onee)  user:       16.7  user+sys:       16.7  wallclock:       17.7
  
  start of program hfig
  
  initial wavefunction generated automatically from atomic wavefunctions
 
  Irreducible     Total no   No of occupied orbitals 
  representation  orbitals   Shell_1  Shell_2    ...
  No Symm         1673        340
  ------------------------
  Orbital occupation/shell    1.000
 
  Peak memory usage:    833 Mb
  
  end of program hfig
   
 Time(hfig)  user:       28.9  user+sys:       28.9  wallclock:       30.6
  
  start of program probe
  
  Peak memory usage:    826 Mb
  
  end of program probe
   
 Time(probe)  user:       21.4  user+sys:       21.4  wallclock:       28.5
  
  start of program grid
  
   grid     grid set  grid #  grid sym
  ------    --------  ------  --------
  coarse        0        0        1
  medium        2        1        1
  fine          0        0        1
  ultrafine     4        2        1
  charge       -1        3        1
  gradient      4        2        1
  density       0        0        1
  DFT-fine    -13        4        1
  DFT-med.    -13        4        1
  DFT-grad    -13        4        1
  DFT-der2      0        0        1
  DFT-cphf      0        0        1
  LMP2-enrg     4        2        1
  LMP2-grad     2        1        1
  DFT-cphf2     0        0        1
  PBF-dens      0        0        1
  plotting      0        0        1
  Rel-grad    -17        0        1
  
  number of gridpoints: 
     atom        C1       C2       C3       C4       C5       C6       C7
  grid # 1       97      101       94      101      100       96       93
  grid # 2      338      360      337      366      357      335      334
  grid # 3       35       27       43       44       16       48       18
  grid # 4    48124    48124    48124    48124    48124    48124    48124
   
  number of gridpoints: 
     atom        C8       C9      C10      C11      O12     Si13      C14
  grid # 1       94       97      100      101      111      474      101
  grid # 2      336      359      354      358      439      474      357
  grid # 3       49       22       12       12       45        9       27
  grid # 4    48124    48124    48124    48124    47716    38542    48124
   
  number of gridpoints: 
     atom       C15      C16      C17      C18      C19      C20     Si21
  grid # 1       97      101       97       93       98      100      470
  grid # 2      354      366      336      331      339      360      470
  grid # 3       25       37       28       16       45        8        8
  grid # 4    48124    48124    48124    48124    48124    48124    38542
   
  number of gridpoints: 
     atom       O22      C23      C24      P25      O26      N27      C28
  grid # 1      112       95       94      449      116      109      101
  grid # 2      438      339      338      449      458      405      359
  grid # 3       63       42       47        9       44       23       11
  grid # 4    47716    48124    48124    38640    47716    47928    48124
   
  number of gridpoints: 
     atom       C29      C30      C31      C32      C33      C34      C35
  grid # 1      100      103      100      101      101       92       97
  grid # 2      361      359      357      361      359      332      335
  grid # 3       21       21       12       23       15       10       22
  grid # 4    48124    48124    48124    48124    48124    48124    48124
   
  number of gridpoints: 
     atom       C36      C37      C38      C39      C40      C41      C42
  grid # 1       93       94       92       97       92       97       92
  grid # 2      337      336      334      337      331      335      335
  grid # 3       32       27       22       26        8       22       23
  grid # 4    48124    48124    48124    48124    48124    48124    48124
   
  number of gridpoints: 
     atom       C43      C44      C45      C46      C47      C48      C49
  grid # 1       97       93       94       92       94       93       94
  grid # 2      340      335      332      333      332      332      336
  grid # 3       38       32       17       21       28       27       45
  grid # 4    48124    48124    48124    48124    48124    48124    48124
   
  number of gridpoints: 
     atom       C50      C51      C52      C53      C54      C55      C56
  grid # 1       94       94       93       94       94       92       93
  grid # 2      336      337      333      333      333      332      332
  grid # 3       47       43       27       29       30       22       30
  grid # 4    48124    48124    48124    48124    48124    48124    48124
   
  number of gridpoints: 
     atom       C57      C58      C59      C60      C61      C62      C63
  grid # 1       94       94       94       94       93       93       92
  grid # 2      332      335      336      337      335      333      333
  grid # 3       28       43       47       45       39       35       25
  grid # 4    48124    48124    48124    48124    48124    48124    48124
   
  number of gridpoints: 
     atom       C64      C65      C66      C67      C68      C69      C70
  grid # 1       96       96      101       96       96       96       92
  grid # 2      330      331      361      334      330      329      323
  grid # 3       30       30       29       32       30       30        6
  grid # 4    48124    48124    48124    48124    48124    48124    48124
   
  number of gridpoints: 
     atom       N71      S72      O73      O74      C75      C76      C77
  grid # 1       98      448      123      120       97       96       96
  grid # 2      345      448      508      480      357      326      329
  grid # 3       21       11      324      162       26       33       32
  grid # 4    47928    48492    47716    47716    48124    48124    48124
   
  number of gridpoints: 
     atom       C78      C79      N80      N81      C82      C83      C84
  grid # 1       96       96      113       97       94       93       93
  grid # 2      329      337      421      340      326      327      327
  grid # 3       29       29      111       12        9        9        9
  grid # 4    48124    48124    47928    47928    48124    48124    48124
   
  number of gridpoints: 
     atom       C85      H86      H87      H88      H89      H90      H91
  grid # 1       92      112      118      118      111      118      115
  grid # 2      324      434      451      446      429      453      436
  grid # 3        7      238      420      358      191      425      258
  grid # 4    48124    48426    48426    48426    48426    48426    48426
   
  number of gridpoints: 
     atom       H92      H93      H94      H95      H96      H97      H98
  grid # 1      112      118      118      118      112      112      111
  grid # 2      428      444      450      450      426      426      429
  grid # 3      206      365      411      417      216      205      228
  grid # 4    48426    48426    48426    48426    48426    48426    48426
   
  number of gridpoints: 
     atom       H99     H100     H101     H102     H103     H104     H105
  grid # 1      109      105      110      111      109      110      112
  grid # 2      425      411      423      429      423      427      429
  grid # 3      190       88      207      213      154      195      222
  grid # 4    48426    48426    48426    48426    48426    48426    48426
   
  number of gridpoints: 
     atom      H106     H107     H108     H109     H110     H111     H112
  grid # 1      111      105      117      116      117      118      118
  grid # 2      432      414      447      444      447      452      453
  grid # 3      222       68      347      340      347      417      425
  grid # 4    48426    48426    48426    48426    48426    48426    48426
   
  number of gridpoints: 
     atom      H113     H114     H115     H116     H117     H118     H119
  grid # 1      118      108      113      117      115      117      115
  grid # 2      452      412      437      452      446      451      443
  grid # 3      419       96      245      402      343      397      326
  grid # 4    48426    48426    48426    48426    48426    48426    48426
   
  number of gridpoints: 
     atom      H120     H121     H122     H123     H124     H125     H126
  grid # 1      118      118      118      118      115      107      111
  grid # 2      453      453      453      452      447      420      425
  grid # 3      419      424      424      400      328      123      170
  grid # 4    48426    48426    48426    48426    48426    48426    48426
   
  number of gridpoints: 
     atom      H127     H128     H129     H130     H131     H132     H133
  grid # 1      105      111      117      117      108      113      115
  grid # 2      411      433      450      449      421      435      449
  grid # 3      118      232      398      383      159      264      375
  grid # 4    48426    48426    48426    48426    48426    48426    48426
   
  number of gridpoints: 
     atom      H134     H135     H136     H137     H138     H139     H140
  grid # 1      117      117      101      108      116      114      105
  grid # 2      451      452      401      422      456      451      419
  grid # 3      407      411       68      127      372      355      119
  grid # 4    48426    48426    48426    48426    48426    48426    48426
   
  number of gridpoints: 
     atom      S141     O142     C143     O144     F145     F146     F147
  grid # 1      429      115       90      117      526      518      524
  grid # 2      429      445      319      473      526      518      524
  grid # 3       10       23        7       91      115      119      190
  grid # 4    48492    47716    48124    47716    47062    47062    47062
   
  number of gridpoints: 
     atom      H148    total
  grid # 1      100    18385
  grid # 2      393    57815
  grid # 3       45    19083
  grid # 4    48426  7104526
   
  Peak memory usage:    795 Mb
  
  end of program grid
   
 Time(grid)  user:     1118.3  user+sys:     1118.3  wallclock:     2464.9
  
  start of program rwr
  
  Peak memory usage:    814 Mb
  
  end of program rwr
   
 Time(rwr)  user:       69.8  user+sys:       69.8  wallclock:      175.1
  
  start of program scf
  
 number of electrons..........        680
 number of alpha electrons....        340
 number of beta electrons.....        340
 number of orbitals, total....       1673
 number of doubly-occ'd orbs..        340
 number of open shell orbs....          0
 number of occupied orbitals..        340
 number of virtual orbitals...       1333
 number of hamiltonians.......          1
 number of shells.............          1
 SCF type: DFT=M06-2X
 Energy computed with NOPS off.
  
       i  u  d  i  g                   
       t  p  i  c  r                                 RMS    maximum
       e  d  i  u  i                       energy  density   DIIS  
       r  t  s  t  d       total energy    change  change    error 
  
etot    1  N  N  1  U   -5562.74646995276           4.3E-03  1.0E-01
etot    2  N  Y  1  U   -5525.63856961925 -3.7E+01  1.5E-02  1.3E-01
etot    3  N  Y  1  U   -5301.60791737927 -2.2E+02  1.5E-02  3.3E-01
etot    4  N  Y  1  U   -5571.74161753773  2.7E+02  4.5E-03  4.5E-02
etot    5  N  Y  1  U   -5554.90395935221 -1.7E+01  4.0E-03  1.1E-01
etot    6  N  Y  1  U   -5575.03794895784  2.0E+01  6.9E-04  2.5E-02
etot    7  N  Y  1  U   -5575.39981216633  3.6E-01  2.9E-04  1.8E-02
etot    8  N  Y  1  U   -5575.53694886695  1.4E-01  9.8E-05  4.8E-03
etot    9  N  Y  1  U   -5575.55203606656  1.5E-02  4.3E-05  1.9E-03
etot   10  N  Y  1  U   -5575.55456685258  2.5E-03  2.1E-05  9.1E-04
etot   11  N  Y  1  U   -5575.55520524170  6.4E-04  9.7E-06  4.0E-04
etot   12  N  Y  1  U   -5575.55534547809  1.4E-04  3.9E-06  1.5E-04
etot   13  N  N  1  U   -5575.55536315662  1.8E-05  0.0E+00  0.0E+00
  
  
 Energy components, in hartrees:
   (A)  Nuclear repulsion............   20764.54729294128
   (E)  Total one-electron terms.....  -49057.39824062225
   (F)    Electron-nuclear...........  -54593.39560694119
   (H)    Kinetic....................    5535.99736631895
   (I)  Total two-electron terms.....   22717.29558452435
   (J)    Coulomb....................   23368.54743587636
   (K)    Exchange+Correlation.......    -651.25185135201
   (L)  Electronic energy............  -26340.10265609790  (E+I)
   (M)  -V/T.........................       2.00714559531  (-(A+F+I)/H)
   (N)  Total energy.................   -5575.55536315662  (A+L)
   (O)  Gas phase energy.............   -5575.55536315662
  
 SCFE: SCF energy: DFT(m06-2x)     -5575.55536315662 hartrees   iterations:  13
  
 
 HOMO energy:    -0.25017
 LUMO energy:    -0.07178
 
  Orbital energies (hartrees): 
   -90.18073   -90.15268   -78.20237   -67.00498   -67.00157   -25.28666
   -25.28519   -25.28101   -19.67952   -19.67848   -19.66231   -19.65801
   -19.63564   -19.62025   -19.59765   -14.82321   -14.82256   -14.80004
   -14.73552   -10.80037   -10.66987   -10.64416   -10.61755   -10.61706
   -10.61583   -10.61360   -10.60425   -10.60262   -10.60028   -10.59341
   -10.58584   -10.57952   -10.57650   -10.56936   -10.56760   -10.56741
   -10.56691   -10.56503   -10.56480   -10.56256   -10.56181   -10.56093
   -10.55890   -10.55762   -10.55572   -10.55395   -10.55088   -10.55019
   -10.54997   -10.54985   -10.54934   -10.54919   -10.54873   -10.54839
   -10.54836   -10.54765   -10.54744   -10.54697   -10.54665   -10.54657
   -10.54572   -10.54563   -10.54501   -10.54455   -10.54315   -10.54289
   -10.54224   -10.54179   -10.54103   -10.54079   -10.54022   -10.53889
   -10.53830   -10.53799   -10.53759   -10.53742   -10.53711   -10.53695
   -10.53640   -10.53636   -10.53505   -10.53365   -10.53297   -10.53243
   -10.53225   -10.53152   -10.53136   -10.53084   -10.52781   -10.52250
   -10.52193   -10.52177    -8.49166    -8.46087    -6.98151    -6.41388
    -6.41272    -6.41213    -6.38317    -6.38225    -6.38212    -5.53606
    -5.53270    -5.09983    -5.09875    -5.09780    -3.84594    -3.84549
    -3.84531    -3.84246    -3.84215    -3.84204    -1.45083    -1.36093
    -1.35843    -1.25329    -1.22107    -1.21353    -1.17411    -1.13773
    -1.11172    -1.10067    -1.09428    -1.08030    -1.07444    -0.98895
    -0.97698    -0.97533    -0.96324    -0.94195    -0.93846    -0.93823
    -0.93730    -0.93145    -0.93012    -0.92875    -0.91768    -0.91015
    -0.90651    -0.89871    -0.88582    -0.88301    -0.85556    -0.84964
    -0.84256    -0.84005    -0.83820    -0.83360    -0.83228    -0.83033
    -0.83006    -0.82493    -0.82464    -0.82352    -0.82215    -0.82173
    -0.82107    -0.81997    -0.81823    -0.81664    -0.81552    -0.81313
    -0.79629    -0.76472    -0.75725    -0.75025    -0.72544    -0.72083
    -0.70535    -0.69882    -0.69845    -0.69488    -0.69157    -0.68903
    -0.68605    -0.67868    -0.67598    -0.67489    -0.67365    -0.67178
    -0.67178    -0.67090    -0.66936    -0.66708    -0.66326    -0.66283
    -0.65979    -0.65882    -0.65618    -0.65538    -0.65433    -0.65159
    -0.64770    -0.64367    -0.63069    -0.61993    -0.61822    -0.61235
    -0.60464    -0.59872    -0.59473    -0.58977    -0.58529    -0.58055
    -0.57775    -0.57675    -0.57418    -0.57228    -0.57142    -0.57028
    -0.56784    -0.55690    -0.55602    -0.55405    -0.55251    -0.54624
    -0.54577    -0.54411    -0.54209    -0.53677    -0.53439    -0.53076
    -0.52539    -0.52518    -0.52447    -0.52268    -0.51958    -0.51663
    -0.51588    -0.51542    -0.51300    -0.51087    -0.50992    -0.50826
    -0.50694    -0.50515    -0.50358    -0.50159    -0.50031    -0.49825
    -0.49737    -0.49672    -0.49548    -0.49510    -0.49483    -0.49216
    -0.49146    -0.49056    -0.48935    -0.48772    -0.48719    -0.48544
    -0.48212    -0.48089    -0.47986    -0.47824    -0.47707    -0.47592
    -0.47343    -0.47300    -0.47080    -0.46940    -0.46894    -0.46521
    -0.45884    -0.45108    -0.44884    -0.44821    -0.44608    -0.44290
    -0.44202    -0.44012    -0.43920    -0.43350    -0.42856    -0.42744
    -0.42604    -0.42162    -0.42112    -0.41956    -0.41703    -0.41663
    -0.41471    -0.41392    -0.41046    -0.40936    -0.40808    -0.40534
    -0.40239    -0.39802    -0.39730    -0.39436    -0.39227    -0.39057
    -0.38946    -0.38839    -0.38664    -0.38447    -0.38067    -0.37918
    -0.37792    -0.37698    -0.37442    -0.37404    -0.37283    -0.36660
    -0.36311    -0.35764    -0.35364    -0.35112    -0.34797    -0.34668
    -0.34063    -0.33804    -0.33557    -0.33514    -0.33482    -0.33263
    -0.32791    -0.32520    -0.32179    -0.32096    -0.31473    -0.30076
    -0.29844    -0.29649    -0.29556    -0.29455    -0.29206    -0.28824
    -0.28629    -0.28499    -0.28480    -0.28334    -0.28164    -0.28122
    -0.28029    -0.27952    -0.26912    -0.25017    -0.07178    -0.03208
    -0.01584    -0.01360     0.00197     0.01490     0.01739     0.02000
     0.02114     0.02313
 
  Peak memory usage:   1028 Mb
  
  end of program scf
   
 Time(scf)  user:    33731.5  user+sys:    33731.5  wallclock:    60014.2
  
  start of program ch
  
  gridpoints used for charge fit        16504
    out of a possible maximum of        19083
  
   Electrostatic potential fitting constrained to reproduce
     total charge:                yes
     dipole moment:               no 
     traceless quadrupole moment: no 
     traceless octapole moment:   no 
  
  Atomic charges from electrostatic potential: 
   
 Atom       C1           C2           C3           C4           C5      
 Charge   -0.12415      0.05963     -0.18768      0.16597     -0.09783
   
 Atom       C6           C7           C8           C9           C10     
 Charge   -0.23065     -0.31869     -0.09388      0.19723     -0.15963
   
 Atom       C11          O12          Si13         C14          C15     
 Charge    0.02299     -0.26494     -0.02447      0.06826      0.26248
   
 Atom       C16          C17          C18          C19          C20     
 Charge    0.30294     -0.13978     -0.47661     -0.27936     -0.01594
   
 Atom       Si21         O22          C23          C24          P25     
 Charge    0.14212     -0.28285     -0.17876     -0.08699      0.89656
   
 Atom       O26          N27          C28          C29          C30     
 Charge   -0.54206     -0.61683      0.04921      0.07671      0.01923
   
 Atom       C31          C32          C33          C34          C35     
 Charge   -0.00921     -0.07222      0.03892     -0.00336     -0.11172
   
 Atom       C36          C37          C38          C39          C40     
 Charge   -0.10886     -0.17692     -0.02517     -0.16644      0.07568
   
 Atom       C41          C42          C43          C44          C45     
 Charge   -0.12407     -0.03729     -0.05826     -0.16492     -0.21797
   
 Atom       C46          C47          C48          C49          C50     
 Charge   -0.21686     -0.08332     -0.18683     -0.15403     -0.13028
   
 Atom       C51          C52          C53          C54          C55     
 Charge   -0.11762     -0.15646     -0.06344     -0.18250     -0.26566
   
 Atom       C56          C57          C58          C59          C60     
 Charge   -0.04295     -0.21011     -0.20797     -0.08036     -0.18409
   
 Atom       C61          C62          C63          C64          C65     
 Charge   -0.12138     -0.17720      0.02616     -0.10444      0.02315
   
 Atom       C66          C67          C68          C69          C70     
 Charge   -0.05973     -0.13893     -0.09187     -0.13656      0.29466
   
 Atom       N71          S72          O73          O74          C75     
 Charge   -0.53180      0.64826     -0.40662     -0.42509      0.53070
   
 Atom       C76          C77          C78          C79          N80     
 Charge   -0.40876      0.14915     -0.37881      0.32981     -0.53235
   
 Atom       N81          C82          C83          C84          C85     
 Charge   -0.02947      0.09822     -0.25254     -0.14488     -0.22024
   
 Atom       H86          H87          H88          H89          H90     
 Charge    0.12541      0.14812      0.14444      0.17621      0.12935
   
 Atom       H91          H92          H93          H94          H95     
 Charge    0.12696      0.22265      0.15621      0.14523      0.12648
   
 Atom       H96          H97          H98          H99          H100    
 Charge    0.08174      0.11827      0.09138      0.12753      0.05450
   
 Atom       H101         H102         H103         H104         H105    
 Charge    0.14428      0.05182      0.14153      0.10867      0.07147
   
 Atom       H106         H107         H108         H109         H110    
 Charge    0.11800      0.17026      0.13442      0.11385      0.13971
   
 Atom       H111         H112         H113         H114         H115    
 Charge    0.13500      0.12881      0.12607      0.07246      0.09274
   
 Atom       H116         H117         H118         H119         H120    
 Charge    0.14031      0.13815      0.11874      0.14879      0.13803
   
 Atom       H121         H122         H123         H124         H125    
 Charge    0.12077      0.14009      0.13010      0.12285      0.00686
   
 Atom       H126         H127         H128         H129         H130    
 Charge    0.11280      0.08422      0.11273      0.12801      0.14221
   
 Atom       H131         H132         H133         H134         H135    
 Charge    0.13446      0.20724      0.11363      0.18884      0.07959
   
 Atom       H136         H137         H138         H139         H140    
 Charge    0.23644      0.13448      0.17214      0.17323      0.22517
   
 Atom       S141         O142         C143         O144         F145    
 Charge    0.63729     -0.32875      0.38323     -0.39943     -0.15021
   
 Atom       F146         F147         H148    
 Charge   -0.10149     -0.12061      0.26912
  
  sum of atomic charges:     0.000000
   
 RMS Error   1.03E-03 hartrees
 
  Peak memory usage:    816 Mb
  
  end of program ch
   
 Time(ch)  user:       18.4  user+sys:       18.4  wallclock:       28.9
  
  start of program post
  
  Writing input files for PBF
  Peak memory usage:    759 Mb
  
  end of program post
   
 Time(post)  user:        0.8  user+sys:        0.8  wallclock:        2.2

  start of program pbf

Pbf Version 4.10

Molecular surface area:      840.14453   [A2]
Reaction field energy:       -18.66545   [kT]
  Peak memory usage: 722 Mb

  end of program pbf

 Time(pbf)  user:        8.5  user+sys:        8.6  wallclock:       10.3
  
  start of program solv
  
   number of surface charges from PBF   13522
   sum of surface charges     -0.00031
   
  nuclear repulsion energy.......   20764.547292941 hartrees
  Peak memory usage:    894 Mb
  
  end of program solv
   
 Time(solv)  user:       35.6  user+sys:       35.6  wallclock:       59.0
  
  start of program scf
  
 Energy computed with NOPS off.
  
       i  u  d  i  g                   
       t  p  i  c  r                                 RMS    maximum
       e  d  i  u  i                       energy  density   DIIS  
       r  t  s  t  d       total energy    change  change    error 
  
etot    1  N  N  1  U   -5575.59418967527           5.5E-05  1.1E-03
etot    2  N  Y  1  U   -5575.59505420729  8.6E-04  1.8E-05  9.2E-04
etot    3  N  Y  1  U   -5575.59534731266  2.9E-04  6.0E-06  4.4E-04
etot    4  N  Y  1  U   -5575.59540433932  5.7E-05  2.7E-06  1.1E-04
etot    5  N  N  1  U   -5575.59541301218  8.7E-06  0.0E+00  0.0E+00
  
  
 Energy components, in hartrees:
   (A)  Total zero-electron terms....   20767.35340646191
   (B)    Nuclear-nuclear............   20764.54729294128
   (C)    Nuclear-solvent............       2.80611352064
   (E)  Total one-electron terms.....  -49061.76495244255
   (F)    Electron-nuclear...........  -54594.97218559417
   (G)    Electron-solvent...........      -2.84738240221
   (H)    Kinetic....................    5536.05461555383
   (I)  Total two-electron terms.....   22718.81613296846
   (J)    Coulomb....................   23370.09025278181
   (K)    Exchange+Correlation.......    -651.27411981336
   (L)  Electronic energy............  -26342.94881947410  (E+I)
   (N)  Total quantum mech. energy...   -5575.59541301218  (A+L)
   (O)  Gas phase energy.............   -5575.55536315662
   (P)  Solution phase energy........   -5575.57477857139  (Q+R+S)
   (Q)    Total solute energy........   -5575.55414413060  (N-C-G)
   (R)    Total solvent energy.......      -0.02063444079  (C/2+G/2)
   (S)    Solute cavity energy.......       0.00000000000
   (U)  Reorganization energy........       0.00121902602  (Q-O)
   (V)  Solvation energy.............      -0.01941541477  (P-O)
  
 SCFE:  Solution phase energy: DFT(m06-2x)      -5575.57477857139 hartrees
        SCF iterations:   5
  
 
 HOMO energy:    -0.25305
 LUMO energy:    -0.07093
 
  Orbital energies (hartrees): 
   -90.18509   -90.15567   -78.20537   -67.00847   -67.00493   -25.28962
   -25.28931   -25.28509   -19.68257   -19.68136   -19.66517   -19.66303
   -19.63815   -19.62347   -19.59976   -14.82497   -14.82157   -14.79773
   -14.73849   -10.80382   -10.66940   -10.64286   -10.62066   -10.61918
   -10.61215   -10.61205   -10.60376   -10.59632   -10.59561   -10.58669
   -10.58499   -10.57674   -10.57423   -10.57047   -10.56775   -10.56681
   -10.56614   -10.56530   -10.56466   -10.56429   -10.56350   -10.56160
   -10.55995   -10.55975   -10.55863   -10.55619   -10.55277   -10.55265
   -10.55151   -10.55134   -10.55119   -10.55113   -10.55048   -10.55044
   -10.55011   -10.55004   -10.54998   -10.54990   -10.54925   -10.54884
   -10.54840   -10.54794   -10.54722   -10.54672   -10.54610   -10.54559
   -10.54481   -10.54448   -10.54380   -10.54329   -10.54275   -10.54187
   -10.54130   -10.54064   -10.54061   -10.54035   -10.54035   -10.54024
   -10.53970   -10.53923   -10.53803   -10.53658   -10.53657   -10.53569
   -10.53531   -10.53529   -10.53425   -10.53314   -10.53141   -10.52666
   -10.52552   -10.52491    -8.49594    -8.46384    -6.98449    -6.41812
    -6.41708    -6.41635    -6.38613    -6.38522    -6.38510    -5.53953
    -5.53604    -5.10282    -5.10173    -5.10077    -3.84941    -3.84897
    -3.84880    -3.84580    -3.84549    -3.84539    -1.45449    -1.36444
    -1.36221    -1.25798    -1.22408    -1.21652    -1.17729    -1.14295
    -1.11087    -1.10335    -1.09190    -1.08260    -1.07576    -0.99188
    -0.97996    -0.97407    -0.96602    -0.94507    -0.94199    -0.94080
    -0.93474    -0.93420    -0.93203    -0.93175    -0.92042    -0.90907
    -0.90795    -0.89647    -0.88865    -0.88115    -0.85394    -0.85218
    -0.84349    -0.84122    -0.84055    -0.83661    -0.83520    -0.83362
    -0.83222    -0.82782    -0.82762    -0.82660    -0.82509    -0.82493
    -0.82406    -0.82290    -0.82141    -0.82004    -0.81839    -0.81237
    -0.79888    -0.76433    -0.75897    -0.74534    -0.72705    -0.72110
    -0.70804    -0.70085    -0.69761    -0.69681    -0.69068    -0.68951
    -0.68667    -0.68175    -0.67864    -0.67828    -0.67652    -0.67470
    -0.67453    -0.67125    -0.66991    -0.66875    -0.66592    -0.66546
    -0.66227    -0.66138    -0.65852    -0.65742    -0.65463    -0.65385
    -0.64761    -0.64589    -0.63304    -0.62188    -0.61739    -0.61248
    -0.60720    -0.60140    -0.59700    -0.59144    -0.58478    -0.57969
    -0.57916    -0.57674    -0.57617    -0.57475    -0.57308    -0.57238
    -0.57012    -0.55969    -0.55897    -0.55611    -0.55417    -0.54817
    -0.54650    -0.54523    -0.54092    -0.53803    -0.53648    -0.53055
    -0.52785    -0.52740    -0.52529    -0.52335    -0.52164    -0.51818
    -0.51699    -0.51590    -0.51430    -0.51264    -0.51197    -0.51043
    -0.50906    -0.50712    -0.50482    -0.50148    -0.50065    -0.49933
    -0.49854    -0.49795    -0.49591    -0.49533    -0.49422    -0.49371
    -0.49360    -0.49276    -0.49220    -0.49082    -0.49007    -0.48772
    -0.48367    -0.48277    -0.48182    -0.47995    -0.47899    -0.47619
    -0.47502    -0.47223    -0.47141    -0.46875    -0.46836    -0.46765
    -0.46136    -0.45285    -0.45130    -0.44915    -0.44881    -0.44519
    -0.44455    -0.44198    -0.44146    -0.43628    -0.43116    -0.42954
    -0.42911    -0.42474    -0.42297    -0.42170    -0.41993    -0.41878
    -0.41725    -0.41691    -0.41400    -0.41215    -0.40925    -0.40714
    -0.40474    -0.40039    -0.39974    -0.39719    -0.39514    -0.39338
    -0.39207    -0.39031    -0.38942    -0.38670    -0.38319    -0.38192
    -0.38097    -0.37948    -0.37704    -0.37611    -0.36975    -0.36928
    -0.36575    -0.36039    -0.35422    -0.35272    -0.34985    -0.34471
    -0.34338    -0.34064    -0.33840    -0.33801    -0.33555    -0.33389
    -0.33055    -0.32813    -0.32398    -0.32174    -0.31351    -0.30251
    -0.30215    -0.30044    -0.29951    -0.29873    -0.29440    -0.29156
    -0.28954    -0.28921    -0.28783    -0.28620    -0.28483    -0.28404
    -0.28352    -0.28235    -0.27225    -0.25305    -0.07093    -0.02928
    -0.01874    -0.00901    -0.00116     0.01434     0.01532     0.01766
     0.01798     0.02112
 
  Peak memory usage:   1029 Mb
  
  end of program scf
   
 Time(scf)  user:    10862.7  user+sys:    10862.7  wallclock:    17282.1
  
  start of program sole
  
    SCRF                   solvation energy
  iteration          Hartrees            kcal/mol
     0               0.0000000            0.0000
     1              -0.0194154          -12.1834
  
  solvation energy not yet converged... 
  
  Peak memory usage:    813 Mb
  
  end of program sole
   
 Time(sole)  user:        0.2  user+sys:        0.2  wallclock:        0.2
  
  start of program ch
  
  gridpoints used for charge fit        16504
    out of a possible maximum of        16504
  
   Electrostatic potential fitting constrained to reproduce
     total charge:                yes
     dipole moment:               no 
     traceless quadrupole moment: no 
     traceless octapole moment:   no 
  
  Atomic charges from electrostatic potential: 
   
 Atom       C1           C2           C3           C4           C5      
 Charge   -0.12627      0.05899     -0.19786      0.16956     -0.09797
   
 Atom       C6           C7           C8           C9           C10     
 Charge   -0.24078     -0.33831     -0.09890      0.18255     -0.16233
   
 Atom       C11          O12          Si13         C14          C15     
 Charge    0.05133     -0.25208     -0.04940      0.06828      0.24791
   
 Atom       C16          C17          C18          C19          C20     
 Charge    0.30736     -0.14231     -0.49046     -0.28809      0.00643
   
 Atom       Si21         O22          C23          C24          P25     
 Charge    0.12456     -0.26681     -0.18654     -0.09314      0.87431
   
 Atom       O26          N27          C28          C29          C30     
 Charge   -0.52967     -0.61140      0.05873      0.07604      0.02296
   
 Atom       C31          C32          C33          C34          C35     
 Charge   -0.00416     -0.07558      0.04292     -0.00288     -0.12236
   
 Atom       C36          C37          C38          C39          C40     
 Charge   -0.11059     -0.18232     -0.02357     -0.17746      0.08134
   
 Atom       C41          C42          C43          C44          C45     
 Charge   -0.13332     -0.03733     -0.05784     -0.18348     -0.22068
   
 Atom       C46          C47          C48          C49          C50     
 Charge   -0.22032     -0.09497     -0.19278     -0.16401     -0.13690
   
 Atom       C51          C52          C53          C54          C55     
 Charge   -0.12453     -0.17052     -0.06629     -0.19236     -0.27398
   
 Atom       C56          C57          C58          C59          C60     
 Charge   -0.05009     -0.21985     -0.21646     -0.08642     -0.19516
   
 Atom       C61          C62          C63          C64          C65     
 Charge   -0.12108     -0.18698      0.02110     -0.11498      0.02432
   
 Atom       C66          C67          C68          C69          C70     
 Charge   -0.06055     -0.14339     -0.09319     -0.14121      0.28891
   
 Atom       N71          S72          O73          O74          C75     
 Charge   -0.53398      0.66997     -0.43341     -0.44408      0.53521
   
 Atom       C76          C77          C78          C79          N80     
 Charge   -0.41163      0.15496     -0.38178      0.34068     -0.56135
   
 Atom       N81          C82          C83          C84          C85     
 Charge   -0.01313      0.09099     -0.25349     -0.14402     -0.22795
   
 Atom       H86          H87          H88          H89          H90     
 Charge    0.12873      0.15718      0.15171      0.18495      0.13803
   
 Atom       H91          H92          H93          H94          H95     
 Charge    0.13073      0.22953      0.16354      0.15328      0.13446
   
 Atom       H96          H97          H98          H99          H100    
 Charge    0.08325      0.11900      0.09216      0.13341      0.05551
   
 Atom       H101         H102         H103         H104         H105    
 Charge    0.15128      0.05213      0.14264      0.11208      0.07056
   
 Atom       H106         H107         H108         H109         H110    
 Charge    0.12464      0.17393      0.14000      0.12264      0.14749
   
 Atom       H111         H112         H113         H114         H115    
 Charge    0.14377      0.13702      0.13425      0.07816      0.09866
   
 Atom       H116         H117         H118         H119         H120    
 Charge    0.14896      0.14523      0.12789      0.15515      0.14607
   
 Atom       H121         H122         H123         H124         H125    
 Charge    0.12885      0.14905      0.13634      0.12955      0.01153
   
 Atom       H126         H127         H128         H129         H130    
 Charge    0.11687      0.07989      0.12054      0.13572      0.14939
   
 Atom       H131         H132         H133         H134         H135    
 Charge    0.14329      0.21139      0.12257      0.19851      0.08735
   
 Atom       H136         H137         H138         H139         H140    
 Charge    0.22428      0.14064      0.18035      0.18268      0.22539
   
 Atom       S141         O142         C143         O144         F145    
 Charge    0.63504     -0.32028      0.37778     -0.39574     -0.14893
   
 Atom       F146         F147         H148    
 Charge   -0.09881     -0.12164      0.26571
  
  sum of atomic charges:     0.000000
   
 RMS Error   1.04E-03 hartrees
 
  Peak memory usage:    816 Mb
  
  end of program ch
   
 Time(ch)  user:       18.5  user+sys:       18.5  wallclock:       24.2
  
  start of program post
  
  Writing input files for PBF
  Peak memory usage:    759 Mb
  
  end of program post
   
 Time(post)  user:        0.8  user+sys:        0.8  wallclock:        1.5

  start of program pbf

Pbf Version 4.10

Molecular surface area:      840.14453   [A2]
Reaction field energy:       -21.50698   [kT]
  Peak memory usage: 722 Mb

  end of program pbf

 Time(pbf)  user:        9.9  user+sys:       10.1  wallclock:       12.1
  
  start of program solv
  
   number of surface charges from PBF   13522
   sum of surface charges     -0.00033
   
  nuclear repulsion energy.......   20764.547292941 hartrees
  Peak memory usage:    894 Mb
  
  end of program solv
   
 Time(solv)  user:       36.6  user+sys:       36.6  wallclock:       53.3
  
  start of program scf
  
 Energy computed with NOPS off.
  
       i  u  d  i  g                   
       t  p  i  c  r                                 RMS    maximum
       e  d  i  u  i                       energy  density   DIIS  
       r  t  s  t  d       total energy    change  change    error 
  
etot    1  N  N  1  U   -5575.59841127641           6.7E-06  1.7E-04
etot    2  N  N  1  U   -5575.59841279217  1.5E-06  0.0E+00  0.0E+00
  
  
 Energy components, in hartrees:
   (A)  Total zero-electron terms....   20767.63255212551
   (B)    Nuclear-nuclear............   20764.54729294128
   (C)    Nuclear-solvent............       3.08525918423
   (E)  Total one-electron terms.....  -49062.43123215676
   (F)    Electron-nuclear...........  -54595.36866906621
   (G)    Electron-solvent...........      -3.12989328874
   (H)    Kinetic....................    5536.06733019820
   (I)  Total two-electron terms.....   22719.20026723908
   (J)    Coulomb....................   23370.47675024235
   (K)    Exchange+Correlation.......    -651.27648300327
   (L)  Electronic energy............  -26343.23096491767  (E+I)
   (N)  Total quantum mech. energy...   -5575.59841279217  (A+L)
   (O)  Gas phase energy.............   -5575.55536315662
   (P)  Solution phase energy........   -5575.57609573991  (Q+R+S)
   (Q)    Total solute energy........   -5575.55377868765  (N-C-G)
   (R)    Total solvent energy.......      -0.02231705226  (C/2+G/2)
   (S)    Solute cavity energy.......       0.00000000000
   (U)  Reorganization energy........       0.00158446897  (Q-O)
   (V)  Solvation energy.............      -0.02073258329  (P-O)
  
 SCFE:  Solution phase energy: DFT(m06-2x)      -5575.57609573991 hartrees
        SCF iterations:   2
  
 
 HOMO energy:    -0.28207
 LUMO energy:    -0.07028
 
  Orbital energies (hartrees): 
   -72.47680   -54.94379   -43.10070   -42.18131   -37.58919   -29.23308
   -29.03296   -28.77544   -27.35473   -27.05593   -25.88920   -23.12938
   -21.80079   -21.77707   -21.20021   -20.59641   -19.07388   -18.83234
   -18.17151   -16.24056   -15.33678   -15.01667   -14.97934   -13.46470
   -13.40586   -13.09711   -12.40379   -11.86566   -11.79994   -11.52006
   -11.07596   -11.01004   -10.97889   -10.96932   -10.77094   -10.73077
   -10.71970   -10.71543   -10.71073   -10.70259   -10.62054   -10.61341
   -10.61078   -10.58210   -10.56452   -10.55760   -10.54604   -10.54429
   -10.53630   -10.53109   -10.52540   -10.52353   -10.52323   -10.50899
   -10.50790   -10.50561   -10.47129   -10.46783   -10.45963   -10.45086
   -10.44509   -10.43124   -10.40932   -10.40872   -10.40468   -10.39620
   -10.38649   -10.37762   -10.37278   -10.37033   -10.30813   -10.29154
   -10.28063   -10.26580   -10.26470   -10.23970   -10.22513   -10.18597
   -10.18295   -10.16322   -10.12318   -10.11459   -10.09425   -10.06962
   -10.04293   -10.02166    -9.89262    -9.86000    -9.82514    -9.80957
    -9.79461    -9.77700    -9.63355    -9.61085    -9.36588    -9.34031
    -9.30959    -9.27997    -9.25989    -9.12669    -8.85626    -8.63064
    -8.56650    -8.47258    -8.32431    -8.27869    -7.90954    -7.75254
    -7.45701    -7.38661    -6.79898    -6.24628    -1.79237    -1.38471
    -1.37614    -1.37018    -1.23938    -1.18799    -1.18575    -1.09549
    -1.05705    -0.96371    -0.96209    -0.93813    -0.90056    -0.88825
    -0.88037    -0.87546    -0.87409    -0.87140    -0.87099    -0.87081
    -0.86952    -0.86571    -0.85783    -0.84256    -0.84161    -0.83860
    -0.83819    -0.82783    -0.82763    -0.82668    -0.82629    -0.82281
    -0.80727    -0.79275    -0.79090    -0.78983    -0.78807    -0.78483
    -0.78035    -0.76946    -0.76913    -0.76840    -0.76451    -0.76327
    -0.75896    -0.75663    -0.75055    -0.74209    -0.72369    -0.72171
    -0.71737    -0.71314    -0.70961    -0.70768    -0.70543    -0.69402
    -0.69372    -0.68812    -0.68778    -0.68474    -0.68381    -0.67664
    -0.67474    -0.67447    -0.66936    -0.66651    -0.66386    -0.66353
    -0.65772    -0.65080    -0.65065    -0.64985    -0.63892    -0.63705
    -0.63419    -0.63352    -0.63271    -0.63256    -0.63239    -0.63187
    -0.63139    -0.63097    -0.62896    -0.62498    -0.62461    -0.62382
    -0.62235    -0.62149    -0.61821    -0.61802    -0.61711    -0.61411
    -0.61363    -0.61346    -0.60825    -0.60602    -0.60590    -0.60236
    -0.59875    -0.59647    -0.58886    -0.58767    -0.58651    -0.58133
    -0.57895    -0.57766    -0.57670    -0.57315    -0.56907    -0.56736
    -0.56668    -0.55924    -0.55859    -0.55835    -0.55664    -0.55363
    -0.55354    -0.55226    -0.55213    -0.55097    -0.54546    -0.54465
    -0.54031    -0.53634    -0.53558    -0.53540    -0.53422    -0.52931
    -0.52917    -0.52815    -0.52473    -0.52388    -0.52273    -0.52098
    -0.51962    -0.51766    -0.51323    -0.51103    -0.51084    -0.50831
    -0.50791    -0.50580    -0.50406    -0.50390    -0.50333    -0.50018
    -0.50012    -0.49949    -0.49239    -0.49157    -0.49085    -0.49018
    -0.48854    -0.48830    -0.48488    -0.48383    -0.48383    -0.48277
    -0.48203    -0.48052    -0.47899    -0.47785    -0.47690    -0.47391
    -0.47316    -0.47086    -0.46975    -0.46890    -0.46859    -0.46806
    -0.46493    -0.46399    -0.46393    -0.46081    -0.46073    -0.45998
    -0.45915    -0.45908    -0.45786    -0.45673    -0.45551    -0.45357
    -0.45333    -0.44995    -0.44776    -0.44760    -0.44722    -0.44566
    -0.44287    -0.43455    -0.43440    -0.43361    -0.43157    -0.43062
    -0.43026    -0.42286    -0.42232    -0.42212    -0.41798    -0.41295
    -0.41090    -0.40623    -0.40539    -0.40479    -0.40315    -0.38439
    -0.38190    -0.37372    -0.37321    -0.35322    -0.35312    -0.34888
    -0.34787    -0.33280    -0.32871    -0.32595    -0.31640    -0.31596
    -0.31435    -0.30566    -0.30558    -0.30558    -0.30353    -0.30024
    -0.29914    -0.28794    -0.28502    -0.28207    -0.07028    -0.02866
    -0.01875    -0.00846    -0.00123     0.01432     0.01551     0.01776
     0.01801     0.02117
 
  Peak memory usage:   1029 Mb
  
  end of program scf
   
 Time(scf)  user:     2745.9  user+sys:     2745.9  wallclock:     4354.9
  
  start of program sole
  
    SCRF                   solvation energy
  iteration          Hartrees            kcal/mol
     0               0.0000000            0.0000
     1              -0.0194154          -12.1834
     2              -0.0207326          -13.0099
  
  solvation energy not yet converged... 
  
  Peak memory usage:    813 Mb
  
  end of program sole
   
 Time(sole)  user:        0.2  user+sys:        0.2  wallclock:        0.2
  
  start of program ch
  
  gridpoints used for charge fit        16504
    out of a possible maximum of        16504
  
   Electrostatic potential fitting constrained to reproduce
     total charge:                yes
     dipole moment:               no 
     traceless quadrupole moment: no 
     traceless octapole moment:   no 
  
  Atomic charges from electrostatic potential: 
   
 Atom       C1           C2           C3           C4           C5      
 Charge   -0.12668      0.05897     -0.19797      0.16989     -0.09763
   
 Atom       C6           C7           C8           C9           C10     
 Charge   -0.24179     -0.34032     -0.09851      0.18033     -0.16302
   
 Atom       C11          O12          Si13         C14          C15     
 Charge    0.05396     -0.25040     -0.05298      0.06915      0.24649
   
 Atom       C16          C17          C18          C19          C20     
 Charge    0.30736     -0.14289     -0.49117     -0.28867      0.00755
   
 Atom       Si21         O22          C23          C24          P25     
 Charge    0.12292     -0.26513     -0.18632     -0.09272      0.87107
   
 Atom       O26          N27          C28          C29          C30     
 Charge   -0.52780     -0.61078      0.05908      0.07512      0.02332
   
 Atom       C31          C32          C33          C34          C35     
 Charge   -0.00449     -0.07672      0.04120     -0.00339     -0.12445
   
 Atom       C36          C37          C38          C39          C40     
 Charge   -0.11083     -0.18285     -0.02440     -0.17892      0.08145
   
 Atom       C41          C42          C43          C44          C45     
 Charge   -0.13474     -0.03709     -0.05862     -0.18440     -0.22104
   
 Atom       C46          C47          C48          C49          C50     
 Charge   -0.22007     -0.09504     -0.19205     -0.16484     -0.13642
   
 Atom       C51          C52          C53          C54          C55     
 Charge   -0.12452     -0.17268     -0.06541     -0.19208     -0.27422
   
 Atom       C56          C57          C58          C59          C60     
 Charge   -0.04998     -0.21984     -0.21651     -0.08617     -0.19533
   
 Atom       C61          C62          C63          C64          C65     
 Charge   -0.12063     -0.18647      0.02079     -0.11634      0.02299
   
 Atom       C66          C67          C68          C69          C70     
 Charge   -0.06251     -0.14253     -0.09168     -0.14045      0.28535
   
 Atom       N71          S72          O73          O74          C75     
 Charge   -0.53482      0.66801     -0.43506     -0.44332      0.53273
   
 Atom       C76          C77          C78          C79          N80     
 Charge   -0.41145      0.15725     -0.37946      0.34132     -0.56544
   
 Atom       N81          C82          C83          C84          C85     
 Charge   -0.01123      0.09192     -0.25080     -0.14238     -0.23003
   
 Atom       H86          H87          H88          H89          H90     
 Charge    0.12899      0.15783      0.15217      0.18588      0.13873
   
 Atom       H91          H92          H93          H94          H95     
 Charge    0.13107      0.22989      0.16393      0.15377      0.13501
   
 Atom       H96          H97          H98          H99          H100    
 Charge    0.08305      0.11878      0.09201      0.13388      0.05586
   
 Atom       H101         H102         H103         H104         H105    
 Charge    0.15177      0.05199      0.14264      0.11216      0.07032
   
 Atom       H106         H107         H108         H109         H110    
 Charge    0.12486      0.17406      0.14052      0.12359      0.14807
   
 Atom       H111         H112         H113         H114         H115    
 Charge    0.14447      0.13763      0.13495      0.07891      0.09921
   
 Atom       H116         H117         H118         H119         H120    
 Charge    0.14969      0.14577      0.12869      0.15554      0.14669
   
 Atom       H121         H122         H123         H124         H125    
 Charge    0.12947      0.14966      0.13672      0.13004      0.01240
   
 Atom       H126         H127         H128         H129         H130    
 Charge    0.11720      0.07939      0.12131      0.13641      0.14972
   
 Atom       H131         H132         H133         H134         H135    
 Charge    0.14437      0.21132      0.12338      0.19945      0.08819
   
 Atom       H136         H137         H138         H139         H140    
 Charge    0.22182      0.14104      0.18080      0.18311      0.22524
   
 Atom       S141         O142         C143         O144         F145    
 Charge    0.63490     -0.31960      0.37711     -0.39499     -0.14844
   
 Atom       F146         F147         H148    
 Charge   -0.09832     -0.12154      0.26571
  
  sum of atomic charges:     0.000000
   
 RMS Error   1.04E-03 hartrees
 
  Peak memory usage:    816 Mb
  
  end of program ch
   
 Time(ch)  user:       18.8  user+sys:       18.8  wallclock:       25.5
  
  start of program post
  
  Writing input files for PBF
  Peak memory usage:    759 Mb
  
  end of program post
   
 Time(post)  user:        0.8  user+sys:        0.8  wallclock:        1.7

  start of program pbf

Pbf Version 4.10

Molecular surface area:      840.14453   [A2]
Reaction field energy:       -21.89542   [kT]
  Peak memory usage: 722 Mb

  end of program pbf

 Time(pbf)  user:       13.5  user+sys:       13.6  wallclock:       18.8
  
  start of program solv
  
   number of surface charges from PBF   13522
   sum of surface charges     -0.00032
   
  nuclear repulsion energy.......   20764.547292941 hartrees
  Peak memory usage:    894 Mb
  
  end of program solv
   
 Time(solv)  user:       36.6  user+sys:       36.6  wallclock:       52.9
  
  start of program scf
  
 Energy computed with NOPS off.
  
       i  u  d  i  g                   
       t  p  i  c  r                                 RMS    maximum
       e  d  i  u  i                       energy  density   DIIS  
       r  t  s  t  d       total energy    change  change    error 
  
etot    1  N  N  1  U   -5575.59878623778           6.3E-06  1.5E-04
etot    2  N  N  1  U   -5575.59876502995 -2.1E-05  0.0E+00  0.0E+00
  
  
 Energy components, in hartrees:
   (A)  Total zero-electron terms....   20767.68666234579
   (B)    Nuclear-nuclear............   20764.54729294128
   (C)    Nuclear-solvent............       3.13936940452
   (E)  Total one-electron terms.....  -49062.07738192996
   (F)    Electron-nuclear...........  -54594.94131112589
   (G)    Electron-solvent...........      -3.18421423157
   (H)    Kinetic....................    5536.04814342749
   (I)  Total two-electron terms.....   22718.79195455423
   (J)    Coulomb....................   23370.06655446932
   (K)    Exchange+Correlation.......    -651.27459991509
   (L)  Electronic energy............  -26343.28542737574  (E+I)
   (N)  Total quantum mech. energy...   -5575.59876502995  (A+L)
   (O)  Gas phase energy.............   -5575.55536315662
   (P)  Solution phase energy........   -5575.57634261642  (Q+R+S)
   (Q)    Total solute energy........   -5575.55392020290  (N-C-G)
   (R)    Total solvent energy.......      -0.02242241353  (C/2+G/2)
   (S)    Solute cavity energy.......       0.00000000000
   (U)  Reorganization energy........       0.00144295373  (Q-O)
   (V)  Solvation energy.............      -0.02097945980  (P-O)
  
 SCFE:  Solution phase energy: DFT(m06-2x)      -5575.57634261642 hartrees
        SCF iterations:   2
  
 
 HOMO energy:    -0.25343
 LUMO energy:    -0.07153
 
  Orbital energies (hartrees): 
   -90.18726   -90.15645   -78.20624   -67.00963   -67.00612   -25.28972
   -25.28963   -25.28554   -19.68341   -19.68226   -19.66514   -19.66502
   -19.63973   -19.62399   -19.60020   -14.82852   -14.82274   -14.80041
   -14.73931   -10.80421   -10.67178   -10.64510   -10.62164   -10.62011
   -10.61177   -10.61053   -10.60453   -10.59508   -10.59508   -10.58649
   -10.58473   -10.57563   -10.57350   -10.57082   -10.56785   -10.56652
   -10.56608   -10.56597   -10.56568   -10.56332   -10.56205   -10.56139
   -10.56031   -10.56013   -10.55919   -10.55684   -10.55292   -10.55289
   -10.55192   -10.55135   -10.55126   -10.55123   -10.55082   -10.55065
   -10.55052   -10.55039   -10.55033   -10.55007   -10.54854   -10.54852
   -10.54834   -10.54785   -10.54756   -10.54645   -10.54611   -10.54598
   -10.54545   -10.54520   -10.54465   -10.54351   -10.54259   -10.54234
   -10.54177   -10.54176   -10.54162   -10.54072   -10.54039   -10.54039
   -10.53986   -10.53942   -10.53805   -10.53777   -10.53756   -10.53685
   -10.53662   -10.53574   -10.53510   -10.53464   -10.53274   -10.52801
   -10.52709   -10.52633    -8.49806    -8.46462    -6.98535    -6.42024
    -6.41922    -6.41847    -6.38691    -6.38600    -6.38588    -5.54068
    -5.53722    -5.10368    -5.10259    -5.10163    -3.85056    -3.85012
    -3.84995    -3.84698    -3.84668    -3.84658    -1.45486    -1.36477
    -1.36260    -1.25968    -1.22494    -1.21739    -1.17814    -1.14446
    -1.11108    -1.10427    -1.09314    -1.08330    -1.07786    -0.99267
    -0.98037    -0.97440    -0.96634    -0.94558    -0.94253    -0.94110
    -0.93525    -0.93487    -0.93232    -0.93163    -0.92071    -0.90940
    -0.90864    -0.89593    -0.88910    -0.88160    -0.85406    -0.85244
    -0.84393    -0.84175    -0.84049    -0.83707    -0.83565    -0.83413
    -0.83250    -0.82838    -0.82806    -0.82710    -0.82560    -0.82540
    -0.82450    -0.82344    -0.82194    -0.82071    -0.81896    -0.81313
    -0.79927    -0.76505    -0.75961    -0.74542    -0.72763    -0.72194
    -0.70854    -0.70121    -0.69815    -0.69710    -0.69117    -0.69000
    -0.68670    -0.68208    -0.67904    -0.67866    -0.67695    -0.67516
    -0.67503    -0.67156    -0.67026    -0.66851    -0.66639    -0.66580
    -0.66270    -0.66192    -0.65900    -0.65803    -0.65513    -0.65459
    -0.64779    -0.64618    -0.63362    -0.62243    -0.61792    -0.61339
    -0.60777    -0.60197    -0.59735    -0.59223    -0.58547    -0.58000
    -0.57951    -0.57672    -0.57650    -0.57517    -0.57350    -0.57308
    -0.57050    -0.56016    -0.55931    -0.55655    -0.55498    -0.54867
    -0.54693    -0.54583    -0.54127    -0.53840    -0.53687    -0.53079
    -0.52843    -0.52796    -0.52566    -0.52347    -0.52186    -0.51860
    -0.51728    -0.51635    -0.51466    -0.51305    -0.51242    -0.51095
    -0.50943    -0.50758    -0.50532    -0.50185    -0.50119    -0.49969
    -0.49897    -0.49839    -0.49613    -0.49531    -0.49456    -0.49399
    -0.49369    -0.49310    -0.49270    -0.49142    -0.49054    -0.48812
    -0.48407    -0.48305    -0.48213    -0.48040    -0.47921    -0.47634
    -0.47538    -0.47269    -0.47192    -0.46808    -0.46806    -0.46792
    -0.46178    -0.45331    -0.45165    -0.44951    -0.44926    -0.44560
    -0.44496    -0.44257    -0.44215    -0.43717    -0.43175    -0.43035
    -0.42981    -0.42532    -0.42341    -0.42208    -0.42050    -0.41933
    -0.41770    -0.41739    -0.41455    -0.41335    -0.40985    -0.40799
    -0.40525    -0.40079    -0.40030    -0.39800    -0.39590    -0.39397
    -0.39258    -0.39066    -0.38990    -0.38713    -0.38367    -0.38249
    -0.38155    -0.38009    -0.37753    -0.37668    -0.36980    -0.36974
    -0.36646    -0.36109    -0.35491    -0.35392    -0.35047    -0.34499
    -0.34383    -0.34128    -0.33916    -0.33879    -0.33630    -0.33368
    -0.33112    -0.32883    -0.32460    -0.32245    -0.31357    -0.30301
    -0.30259    -0.30111    -0.30007    -0.29930    -0.29475    -0.29210
    -0.29012    -0.28991    -0.28840    -0.28679    -0.28550    -0.28466
    -0.28412    -0.28275    -0.27263    -0.25343    -0.07153    -0.02972
    -0.01914    -0.00897    -0.00160     0.01388     0.01492     0.01716
     0.01739     0.02062
 
  Peak memory usage:   1029 Mb
  
  end of program scf
   
 Time(scf)  user:     2742.0  user+sys:     2742.0  wallclock:     4682.7
  
  start of program sole
  
    SCRF                   solvation energy
  iteration          Hartrees            kcal/mol
     0               0.0000000            0.0000
     1              -0.0194154          -12.1834
     2              -0.0207326          -13.0099
     3              -0.0209795          -13.1648
  
  solvation energy not yet converged... 
  
  Peak memory usage:    813 Mb
  
  end of program sole
   
 Time(sole)  user:        0.1  user+sys:        0.1  wallclock:        0.2
  
  start of program ch
  
  gridpoints used for charge fit        16504
    out of a possible maximum of        16504
  
   Electrostatic potential fitting constrained to reproduce
     total charge:                yes
     dipole moment:               no 
     traceless quadrupole moment: no 
     traceless octapole moment:   no 
  
  Atomic charges from electrostatic potential: 
   
 Atom       C1           C2           C3           C4           C5      
 Charge   -0.12616      0.05875     -0.19873      0.16974     -0.09817
   
 Atom       C6           C7           C8           C9           C10     
 Charge   -0.24129     -0.34028     -0.09939      0.18160     -0.16326
   
 Atom       C11          O12          Si13         C14          C15     
 Charge    0.05416     -0.25093     -0.05080      0.06848      0.24734
   
 Atom       C16          C17          C18          C19          C20     
 Charge    0.30701     -0.14241     -0.49121     -0.28825      0.00879
   
 Atom       Si21         O22          C23          C24          P25     
 Charge    0.12340     -0.26574     -0.18719     -0.09383      0.87336
   
 Atom       O26          N27          C28          C29          C30     
 Charge   -0.52920     -0.61137      0.06068      0.07622      0.02326
   
 Atom       C31          C32          C33          C34          C35     
 Charge   -0.00258     -0.07513      0.04367     -0.00287     -0.12263
   
 Atom       C36          C37          C38          C39          C40     
 Charge   -0.11069     -0.18213     -0.02242     -0.17796      0.08159
   
 Atom       C41          C42          C43          C44          C45     
 Charge   -0.13413     -0.03753     -0.05727     -0.18496     -0.21951
   
 Atom       C46          C47          C48          C49          C50     
 Charge   -0.22049     -0.09663     -0.19398     -0.16478     -0.13749
   
 Atom       C51          C52          C53          C54          C55     
 Charge   -0.12548     -0.17254     -0.06666     -0.19385     -0.27461
   
 Atom       C56          C57          C58          C59          C60     
 Charge   -0.05092     -0.22106     -0.21716     -0.08702     -0.19632
   
 Atom       C61          C62          C63          C64          C65     
 Charge   -0.12104     -0.18825      0.01970     -0.11634      0.02642
   
 Atom       C66          C67          C68          C69          C70     
 Charge   -0.06130     -0.14387     -0.09418     -0.14204      0.29092
   
 Atom       N71          S72          O73          O74          C75     
 Charge   -0.53277      0.67236     -0.43699     -0.44725      0.53650
   
 Atom       C76          C77          C78          C79          N80     
 Charge   -0.41293      0.15509     -0.38307      0.34121     -0.56292
   
 Atom       N81          C82          C83          C84          C85     
 Charge   -0.00932      0.08732     -0.25460     -0.14399     -0.22995
   
 Atom       H86          H87          H88          H89          H90     
 Charge    0.12868      0.15797      0.15205      0.18543      0.13886
   
 Atom       H91          H92          H93          H94          H95     
 Charge    0.13081      0.22977      0.16395      0.15398      0.13521
   
 Atom       H96          H97          H98          H99          H100    
 Charge    0.08290      0.11872      0.09181      0.13351      0.05512
   
 Atom       H101         H102         H103         H104         H105    
 Charge    0.15152      0.05174      0.14277      0.11211      0.06991
   
 Atom       H106         H107         H108         H109         H110    
 Charge    0.12470      0.17425      0.14051      0.12364      0.14814
   
 Atom       H111         H112         H113         H114         H115    
 Charge    0.14436      0.13771      0.13496      0.07950      0.09915
   
 Atom       H116         H117         H118         H119         H120    
 Charge    0.14975      0.14572      0.12881      0.15550      0.14674
   
 Atom       H121         H122         H123         H124         H125    
 Charge    0.12955      0.14967      0.13672      0.13017      0.01206
   
 Atom       H126         H127         H128         H129         H130    
 Charge    0.11713      0.07871      0.12130      0.13671      0.14992
   
 Atom       H131         H132         H133         H134         H135    
 Charge    0.14301      0.21127      0.12384      0.20013      0.08807
   
 Atom       H136         H137         H138         H139         H140    
 Charge    0.22354      0.14154      0.18182      0.18383      0.22595
   
 Atom       S141         O142         C143         O144         F145    
 Charge    0.63527     -0.31922      0.37665     -0.39526     -0.14865
   
 Atom       F146         F147         H148    
 Charge   -0.09843     -0.12167      0.26636
  
  sum of atomic charges:     0.000000
   
 RMS Error   1.04E-03 hartrees
 
  Peak memory usage:    816 Mb
  
  end of program ch
   
 Time(ch)  user:       18.4  user+sys:       18.4  wallclock:       28.8
  
  start of program post
  
  Writing input files for PBF
  Peak memory usage:    759 Mb
  
  end of program post
   
 Time(post)  user:        0.8  user+sys:        0.8  wallclock:        1.8

  start of program pbf

Pbf Version 4.10

Molecular surface area:      840.14453   [A2]
Reaction field energy:       -21.74481   [kT]
  Peak memory usage: 722 Mb

  end of program pbf

 Time(pbf)  user:       10.4  user+sys:       10.5  wallclock:       13.8
  
  start of program solv
  
   number of surface charges from PBF   13522
   sum of surface charges     -0.00033
   
  nuclear repulsion energy.......   20764.547292941 hartrees
  Peak memory usage:    894 Mb
  
  end of program solv
   
 Time(solv)  user:       36.0  user+sys:       36.0  wallclock:       99.7
  
  start of program scf
  
 Energy computed with NOPS off.
  
       i  u  d  i  g                   
       t  p  i  c  r                                 RMS    maximum
       e  d  i  u  i                       energy  density   DIIS  
       r  t  s  t  d       total energy    change  change    error 
  
etot    1  N  N  1  U   -5575.59863791235           9.9E-06  2.4E-04
etot    2  N  Y  1  U   -5575.59856489424 -7.3E-05  6.5E-06  4.1E-04
etot    3  N  Y  1  U   -5575.59866773571  1.0E-04  2.0E-07  1.2E-05
etot    4  N  N  1  U   -5575.59866771211 -2.4E-08  0.0E+00  0.0E+00
  
  
 Energy components, in hartrees:
   (A)  Total zero-electron terms....   20767.64946470234
   (B)    Nuclear-nuclear............   20764.54729294128
   (C)    Nuclear-solvent............       3.10217176107
   (E)  Total one-electron terms.....  -49062.27466592954
   (F)    Electron-nuclear...........  -54595.18407152622
   (G)    Electron-solvent...........      -3.14697925944
   (H)    Kinetic....................    5536.05638485613
   (I)  Total two-electron terms.....   22719.02653351509
   (J)    Coulomb....................   23370.30187212666
   (K)    Exchange+Correlation.......    -651.27533861157
   (L)  Electronic energy............  -26343.24813241445  (E+I)
   (N)  Total quantum mech. energy...   -5575.59866771211  (A+L)
   (O)  Gas phase energy.............   -5575.55536315662
   (P)  Solution phase energy........   -5575.57626396292  (Q+R+S)
   (Q)    Total solute energy........   -5575.55386021373  (N-C-G)
   (R)    Total solvent energy.......      -0.02240374919  (C/2+G/2)
   (S)    Solute cavity energy.......       0.00000000000
   (U)  Reorganization energy........       0.00150294289  (Q-O)
   (V)  Solvation energy.............      -0.02090080630  (P-O)
  
 SCFE:  Solution phase energy: DFT(m06-2x)      -5575.57626396292 hartrees
        SCF iterations:   4
  
 
 HOMO energy:    -0.25324
 LUMO energy:    -0.07074
 
  Orbital energies (hartrees): 
   -90.18534   -90.15573   -78.20545   -67.00862   -67.00500   -25.28956
   -25.28951   -25.28533   -19.68269   -19.68147   -19.66659   -19.66454
   -19.63801   -19.62359   -19.59989   -14.82443   -14.82129   -14.79743
   -14.73859   -10.80395   -10.66882   -10.64278   -10.62074   -10.61926
   -10.61226   -10.61152   -10.60356   -10.59603   -10.59516   -10.58590
   -10.58454   -10.57638   -10.57392   -10.57090   -10.56809   -10.56679
   -10.56644   -10.56555   -10.56449   -10.56408   -10.56328   -10.56200
   -10.56020   -10.55975   -10.55888   -10.55626   -10.55300   -10.55294
   -10.55167   -10.55152   -10.55131   -10.55128   -10.55062   -10.55062
   -10.55047   -10.55042   -10.55026   -10.55018   -10.54945   -10.54891
   -10.54867   -10.54818   -10.54755   -10.54685   -10.54634   -10.54592
   -10.54503   -10.54482   -10.54394   -10.54356   -10.54306   -10.54228
   -10.54166   -10.54093   -10.54071   -10.54071   -10.54049   -10.54046
   -10.54006   -10.53932   -10.53825   -10.53687   -10.53657   -10.53573
   -10.53571   -10.53554   -10.53449   -10.53325   -10.53169   -10.52694
   -10.52565   -10.52501    -8.49624    -8.46390    -6.98457    -6.41841
    -6.41740    -6.41664    -6.38619    -6.38528    -6.38516    -5.53970
    -5.53612    -5.10290    -5.10182    -5.10086    -3.84957    -3.84913
    -3.84897    -3.84588    -3.84557    -3.84548    -1.45462    -1.36456
    -1.36235    -1.25879    -1.22417    -1.21659    -1.17741    -1.14398
    -1.11074    -1.10336    -1.09167    -1.08269    -1.07558    -0.99198
    -0.98020    -0.97388    -0.96626    -0.94539    -0.94229    -0.94103
    -0.93498    -0.93451    -0.93194    -0.93160    -0.92062    -0.90922
    -0.90777    -0.89623    -0.88886    -0.88089    -0.85375    -0.85240
    -0.84371    -0.84142    -0.84048    -0.83692    -0.83539    -0.83392
    -0.83243    -0.82811    -0.82782    -0.82683    -0.82530    -0.82516
    -0.82429    -0.82308    -0.82164    -0.82031    -0.81858    -0.81228
    -0.79906    -0.76427    -0.75894    -0.74492    -0.72714    -0.72101
    -0.70819    -0.70100    -0.69781    -0.69661    -0.69050    -0.68964
    -0.68650    -0.68187    -0.67883    -0.67850    -0.67671    -0.67489
    -0.67478    -0.67145    -0.67009    -0.66862    -0.66614    -0.66561
    -0.66251    -0.66156    -0.65874    -0.65767    -0.65464    -0.65387
    -0.64763    -0.64602    -0.63313    -0.62203    -0.61747    -0.61243
    -0.60742    -0.60161    -0.59716    -0.59145    -0.58484    -0.57988
    -0.57937    -0.57655    -0.57635    -0.57494    -0.57323    -0.57243
    -0.57027    -0.55987    -0.55913    -0.55627    -0.55442    -0.54830
    -0.54647    -0.54528    -0.54087    -0.53798    -0.53664    -0.53048
    -0.52793    -0.52748    -0.52536    -0.52331    -0.52166    -0.51830
    -0.51718    -0.51579    -0.51441    -0.51272    -0.51210    -0.51059
    -0.50924    -0.50725    -0.50501    -0.50154    -0.50075    -0.49947
    -0.49873    -0.49816    -0.49579    -0.49498    -0.49433    -0.49385
    -0.49334    -0.49293    -0.49241    -0.49108    -0.49026    -0.48787
    -0.48391    -0.48292    -0.48197    -0.48021    -0.47914    -0.47610
    -0.47518    -0.47243    -0.47157    -0.46860    -0.46802    -0.46781
    -0.46154    -0.45305    -0.45151    -0.44916    -0.44901    -0.44536
    -0.44475    -0.44220    -0.44172    -0.43652    -0.43141    -0.42985
    -0.42936    -0.42502    -0.42322    -0.42166    -0.42015    -0.41898
    -0.41748    -0.41714    -0.41427    -0.41284    -0.40929    -0.40735
    -0.40489    -0.40062    -0.39992    -0.39764    -0.39536    -0.39368
    -0.39229    -0.39051    -0.38966    -0.38684    -0.38336    -0.38212
    -0.38125    -0.37961    -0.37720    -0.37624    -0.36943    -0.36938
    -0.36585    -0.36046    -0.35440    -0.35265    -0.35006    -0.34457
    -0.34348    -0.34085    -0.33864    -0.33820    -0.33570    -0.33370
    -0.33067    -0.32826    -0.32413    -0.32165    -0.31336    -0.30286
    -0.30231    -0.30080    -0.29983    -0.29902    -0.29462    -0.29179
    -0.28981    -0.28954    -0.28803    -0.28641    -0.28508    -0.28427
    -0.28371    -0.28240    -0.27248    -0.25324    -0.07074    -0.02904
    -0.01892    -0.00862    -0.00141     0.01412     0.01528     0.01751
     0.01775     0.02093
 
  Peak memory usage:   1029 Mb
  
  end of program scf
   
 Time(scf)  user:     8223.3  user+sys:     8223.3  wallclock:    12839.9
  
  start of program sole
  
    SCRF                   solvation energy
  iteration          Hartrees            kcal/mol
     0               0.0000000            0.0000
     1              -0.0194154          -12.1834
     2              -0.0207326          -13.0099
     3              -0.0209795          -13.1648
     4              -0.0209008          -13.1155
  
  stopping: solvation energy converged
  
  iterations:   4    sfinal:    -13.1155 kcal/mol
  
  Peak memory usage:    813 Mb
  
  end of program sole
   
 Time(sole)  user:        0.2  user+sys:        0.2  wallclock:        0.2
  
  start of program post
  
  Writing input files for PBF
  Peak memory usage:    759 Mb
  
  end of program post
   
 Time(post)  user:        0.7  user+sys:        0.7  wallclock:        1.0

 Total cpu seconds     user:   59774.164   user+sys:   59774.164
  
 Total elapsed time:    102343 seconds

Job jag_Toru-SiPh3-NTf-Type-I-E-Sulfonyl-1-chkp-scan-unrestrained.SPE completed on tethys at Fri Feb 24 18:00:48 2017
