Job B3LYP-SPE-Toru-SiPh3-Type-I-E-11-chkp-unrestrained started on tethys at Mon Nov 28 11:21:35 2016
jobid: tethys-0-583c133f

  +--------------------------------------------------------------------+
  |  Jaguar version 8.4, release  16                                   |
  |                                                                    |
  |  Copyright Schrodinger, Inc.                                       |
  |  All Rights Reserved.                                              |
  |                                                                    |
  |  The following have contributed to Jaguar (listed alphabetically): |
  |  Mike Beachy, Art Bochevarov, Dale Braden, Yixiang Cao,            |
  |  Chris Cortis, Rich Friesner, Bill Goddard, Hod Greeley,           |
  |  Tom Hughes, Jean-Marc Langlois, Daniel Mainz, Rob Murphy,         |
  |  Dean Philipp, Tom Pollard, Murco Ringnalda.                       |
  |                                                                    |
  |  Use of this program should be acknowledged in publications as:    |
  |                                                                    |
  |  Jaguar, version 8.4, Schrodinger, Inc., New York, NY, 2013.       |
  |                                                                    |
  |  A. D. Bochevarov, E. Harder, T. F. Hughes, J. R. Greenwood,       |
  |  D. A. Braden, D. M. Philipp, D. Rinaldo, M. D. Halls,             |
  |  J. Zhang, R. A. Friesner, "Jaguar: A High-Performance Quantum     |
  |  Chemistry Software Program with Strengths in Life and Materials   |
  |  Sciences", Int. J. Quantum Chem., 2013, 113(18), 2110-2142.       |
  +--------------------------------------------------------------------+
  
  start of program pre
  
  Job name: B3LYP-SPE-Toru-SiPh3-Type-I-E-11-chkp-unrestrained
  Executables used: /usr/local/shared/schrodinger/current/jaguar-v84016/bin/Linux-x86_64
  Temporary files : /home/ab2144/.schrodinger/tmp/B3LYP-SPE-Toru-SiPh3-Type-I-E-11-chkp-unrestrained
  Maestro file (input):  B3LYP-SPE-Toru-SiPh3-Type-I-E-11-chkp-unrestrained.mae
  Maestro file (output): B3LYP-SPE-Toru-SiPh3-Type-I-E-11-chkp-unrestrained.01.mae
  
  
  basis set:             6-31g**         
  net molecular charge:    0
  multiplicity:            1
  
  keygrid settings 
    wispc.....   7.500E-01
    ldens.....   0
    denspc....   7.500E-01
  
   grid     daf set  nls  grid set  Q type
  ------    -------  ---  --------  ------
  coarse       1      1       1        1
  medium       2      2       2        1
  fine         3      2       3        0
  ultrafine    4      2       4        1
  charge       0      1      -1        1
  gradient     5      2       4        1
  density      0      1       0        0
  DFT-fine     0      1     -13        0
  DFT-med.     0      1     -13        0
  DFT-grad     0      1     -13        0
  DFT-der2     0      1       0        0
  DFT-cphf     0      1       0        0
  LMP2-enrg    4      2       4        1
  LMP2-grad    5      2       2        1
  DFT-cphf2    0      1       0        0
  PBF-dens     0      1       0        0
  plotting     0      1       0        0
  
  idftgrdm  100
  ndftgrdm   50    0    0
  idftgrdf  111
  ndftgrdf   85    0    0
  idftgrdg  111
  ndftgrdg   80    3    0
  idftgrdu  433
  ndftgrdu  105    0    0
  idftgrdd  433
  ndftgrdd  105    0    0
  idftgrdc  433
  ndftgrdc   26    0    0
  idftgrdp  433
  ndftgrdp   18    0    0
  
  number of basis functions....         1571
  
 Input geometry:
                                   angstroms
  atom               x                 y                 z
  C1            0.3507000000      5.3850000000     -0.0889000000 
  C2            1.2624000000      4.2127000000     -0.2120000000 
  C3            0.7699000000      6.6082000000     -0.4330000000 
  C4            2.5000000000      4.3997000000     -0.7182000000 
  C5            0.8217000000      2.8341000000      0.1623000000 
  C6            2.9566000000      5.7591000000     -1.0908000000 
  C7            3.4032000000      3.2513000000     -0.9024000000 
  C8            2.1366000000      6.8056000000     -0.9503000000 
  C9            1.5970000000      1.7705000000     -0.1555000000 
  C10          -0.4892000000      2.6237000000      0.8196000000 
  C11           2.9963000000      2.0044000000     -0.6200000000 
  O12           1.1861000000      0.4907000000      0.1429000000 
  Si13          4.2048000000      0.5910000000     -0.7868000000 
  C14          -0.8024000000      3.1658000000      2.0170000000 
  C15          -1.5143000000      1.8653000000      0.0641000000 
  C16          -2.2073000000      3.1169000000      2.4931000000 
  C17           0.1968000000      3.8305000000      2.8896000000 
  C18          -3.1595000000      2.5702000000      1.7250000000 
  C19          -2.5328000000      3.7240000000      3.7984000000 
  C20          -2.8108000000      1.9372000000      0.4315000000 
  Si21         -4.2102000000      1.2021000000     -0.5653000000 
  O22          -1.1196000000      1.1497000000     -1.0350000000 
  C23          -0.1716000000      4.3564000000      4.0638000000 
  C24          -1.5744000000      4.3027000000      4.5308000000 
  P25          -0.1177000000     -0.1106000000     -0.6808000000 
  O26           0.2833000000     -0.7060000000     -2.0059000000 
  O27          -0.8157000000     -1.0329000000      0.3131000000 
  C28           3.5552000000     -0.5351000000     -2.1135000000 
  C29           5.8833000000      1.2095000000     -1.2976000000 
  C30           4.4818000000     -0.2457000000      0.8531000000 
  C31          -5.0719000000      0.0082000000      0.5720000000 
  C32          -5.3795000000      2.5283000000     -1.1415000000 
  C33          -3.6296000000      0.3455000000     -2.1099000000 
  C34           3.5998000000     -1.8719000000     -1.9960000000 
  C35           3.0411000000      0.0697000000     -3.3666000000 
  C36           6.5921000000      1.9861000000     -0.4606000000 
  C37           6.4685000000      0.8244000000     -2.6057000000 
  C38           3.8770000000      0.1912000000      1.9725000000 
  C39           5.4698000000     -1.3482000000      0.9462000000 
  C40          -4.3479000000     -0.8824000000      1.2693000000 
  C41          -6.5434000000      0.0494000000      0.7553000000 
  C42          -5.1922000000      3.8198000000     -0.8197000000 
  C43          -6.5093000000      2.1552000000     -2.0267000000 
  C44          -3.0904000000      1.0546000000     -3.1165000000 
  C45          -3.7731000000     -1.1201000000     -2.2500000000 
  C46           3.1615000000     -2.7299000000     -3.1172000000 
  C47           2.6881000000     -2.1793000000     -4.2407000000 
  C48           2.6229000000     -0.7104000000     -4.3706000000 
  C49           7.9335000000      2.4690000000     -0.8486000000 
  C50           8.4527000000      2.1257000000     -2.0330000000 
  C51           7.6855000000      1.2617000000     -2.9527000000 
  C52           4.1541000000     -0.4581000000      3.2706000000 
  C53           5.0198000000     -1.4753000000      3.3412000000 
  C54           5.7164000000     -1.9363000000      2.1235000000 
  C55          -5.0119000000     -1.8407000000      2.1756000000 
  C56          -6.3414000000     -1.8143000000      2.3195000000 
  C57          -7.1433000000     -0.8185000000      1.5802000000 
  C58          -6.1264000000      4.8522000000     -1.3158000000 
  C59          -7.1534000000      4.5070000000     -2.1012000000 
  C60          -7.3516000000      3.0928000000     -2.4773000000 
  C61          -2.5882000000      0.3668000000     -4.3245000000 
  C62          -2.6904000000     -0.9636000000     -4.4294000000 
  C63          -3.3227000000     -1.7420000000     -3.3455000000 
  C64          -3.1136000000     -6.6068000000     -0.1664000000 
  C65          -1.8291000000     -6.1472000000      0.1009000000 
  C66          -1.5644000000     -4.7704000000      0.2094000000 
  C67          -2.6074000000     -3.8527000000      0.0106000000 
  C68          -3.8975000000     -4.3217000000     -0.2403000000 
  C69          -4.1544000000     -5.6903000000     -0.3286000000 
  C70          -0.2047000000     -4.3814000000      0.6265000000 
  N71           0.0154000000     -3.2248000000      1.3222000000 
  S72           1.5062000000     -3.1701000000      2.1531000000 
  O73           1.7432000000     -4.5000000000      2.7352000000 
  O74           2.5229000000     -2.5859000000      1.2746000000 
  C75           1.1271000000     -2.0332000000      3.5129000000 
  C76           1.4307000000     -2.4323000000      4.8125000000 
  C77           1.1920000000     -1.4988000000      5.8220000000 
  C78           0.6641000000     -0.2540000000      5.4818000000 
  C79           0.3936000000      0.0173000000      4.1382000000 
  N80           0.6307000000     -0.8589000000      3.1593000000 
  N81           0.2025000000     -3.3454000000     -1.9993000000 
  C82          -0.3656000000     -4.0568000000     -2.9727000000 
  C83           0.0086000000     -5.4154000000     -2.8549000000 
  C84           0.8544000000     -5.4958000000     -1.7618000000 
  C85           0.9217000000     -4.2031000000     -1.1613000000 
  H86          -0.6643000000      5.2643000000      0.2644000000 
  H87           0.1030000000      7.4560000000     -0.3423000000 
  H88           3.9562000000      5.9102000000     -1.4793000000 
  H89           4.4016000000      3.4416000000     -1.2699000000 
  H90           2.4704000000      7.7983000000     -1.2238000000 
  H91           1.2393000000      3.8792000000      2.6017000000 
  H92          -4.1906000000      2.5658000000      2.0597000000 
  H93          -3.5499000000      3.7057000000      4.1713000000 
  H94           0.5723000000      4.8290000000      4.6923000000 
  H95          -1.8266000000      4.7431000000      5.4869000000 
  H96          -0.3291000000     -2.2400000000      0.9254000000 
  H97           3.9729000000     -2.3443000000     -1.1005000000 
  H98           2.9997000000      1.1464000000     -3.4746000000 
  H99           6.1911000000      2.2704000000      0.5047000000 
  H100          5.9233000000      0.1872000000     -3.2882000000 
  H101          3.1915000000      1.0258000000      1.9538000000 
  H102          6.0022000000     -1.6786000000      0.0632000000 
  H103         -3.2713000000     -0.9043000000      1.1852000000 
  H104         -7.1449000000      0.7799000000      0.2345000000 
  H105         -4.3598000000      4.1310000000     -0.2049000000 
  H106         -6.6573000000      1.1212000000     -2.3128000000 
  H107         -2.9880000000      2.1304000000     -3.0427000000 
  H108         -4.2521000000     -1.6924000000     -1.4739000000 
  H109          3.2192000000     -3.8065000000     -3.0245000000 
  H110          2.3576000000     -2.8083000000     -5.0571000000 
  H111          2.2433000000     -0.2669000000     -5.2819000000 
  H112          8.4947000000      3.0999000000     -0.1716000000 
  H113          9.4356000000      2.4777000000     -2.3185000000 
  H114          8.1118000000      0.9806000000     -3.9071000000 
  H115          3.6504000000     -0.1109000000      4.1634000000 
  H116          5.2184000000     -1.9551000000      4.2907000000 
  H117          6.4342000000     -2.7436000000      2.1877000000 
  H118         -4.4197000000     -2.5658000000      2.7188000000 
  H119         -6.8309000000     -2.5166000000      2.9816000000 
  H120         -8.2171000000     -0.7884000000      1.7126000000 
  H121         -5.9758000000      5.8888000000     -1.0435000000 
  H122         -7.8373000000      5.2624000000     -2.4657000000 
  H123         -8.1771000000      2.8177000000     -3.1209000000 
  H124         -2.1305000000      0.9410000000     -5.1194000000 
  H125         -2.3185000000     -1.4703000000     -5.3105000000 
  H126         -3.4302000000     -2.8146000000     -3.4428000000 
  H127         -3.3044000000     -7.6734000000     -0.2348000000 
  H128         -1.0211000000     -6.8585000000      0.2475000000 
  H129         -2.3999000000     -2.7894000000      0.0675000000 
  H130         -4.7186000000     -3.6225000000     -0.3527000000 
  H131         -5.1638000000     -6.0415000000     -0.5217000000 
  H132          0.3899000000     -5.2149000000      0.9913000000 
  H133          1.8288000000     -3.4202000000      5.0084000000 
  H134          1.4124000000     -1.7435000000      6.8564000000 
  H135          0.4622000000      0.4958000000      6.2397000000 
  H136         -0.0269000000      0.9718000000      3.8346000000 
  H137          0.1999000000     -2.2773000000     -1.9497000000 
  H138         -0.9952000000     -3.5824000000     -3.7124000000 
  H139         -0.3181000000     -6.2171000000     -3.5016000000 
  H140          1.3417000000     -6.3812000000     -1.3755000000 
  H141          1.7701000000     -3.7951000000     -0.6262000000 
   
  principal moments of inertia:
        amu*angstrom^2:    17432.84302    22760.19223    27320.40719
                g*cm^2: 2.89479133E-36 3.77941837E-36 4.53665978E-36
   
  rotational constants:
               cm^(-1):      0.00096700      0.00074066      0.00061703
                   GHz:      0.02899005      0.02220451      0.01849822
   
  Molecular weight:    1177.32 amu
   
  Stoichiometry: Si2C72PN3H56SO6
  Molecular Point Group: C1      
  Point Group used: C1
  
  nuclear repulsion energy.......   17410.342910038 hartrees
 
 Non-default options chosen:
   SCF calculation type: DFT(b3lyp)                  
   DFT=Becke_3_Parameter/HF+Slater+Becke88+VWN+LYP (B3LYP)
   Solvation energy will be computed using PBF
     -solute cavity energy will not be included
     -surface area terms will not be included
   Highest accuracy cutoffs used in SCF
   Solvent: other                                                           
   Internal dielectric constant:    1.000
   Continuum dielectric constant:   2.380
   Solvent probe molecule radius:   2.760
  
 Temporary integer options set:
     73=  2
  
  atom       vdw   vdw2    cov     mass  grid  daf  charge   basis
  C1        1.949  1.900  0.770   12.000    Y    Y      Y    6-31g**
  C2        1.949  1.900  0.770   12.000    Y    Y      Y    6-31g**
  C3        1.949  1.900  0.770   12.000    Y    Y      Y    6-31g**
  C4        1.949  1.900  0.770   12.000    Y    Y      Y    6-31g**
  C5        1.949  1.900  0.770   12.000    Y    Y      Y    6-31g**
  C6        1.949  1.900  0.770   12.000    Y    Y      Y    6-31g**
  C7        1.949  1.900  0.770   12.000    Y    Y      Y    6-31g**
  C8        1.949  1.900  0.770   12.000    Y    Y      Y    6-31g**
  C9        1.949  1.900  0.770   12.000    Y    Y      Y    6-31g**
  C10       1.949  1.900  0.770   12.000    Y    Y      Y    6-31g**
  C11       1.949  1.900  0.770   12.000    Y    Y      Y    6-31g**
  O12       1.702  1.600  0.730   15.995    Y    Y      Y    6-31g**
  Si13      2.217  2.147  1.110   27.977    Y    Y      Y    6-31g**
  C14       1.949  1.900  0.770   12.000    Y    Y      Y    6-31g**
  C15       1.949  1.900  0.770   12.000    Y    Y      Y    6-31g**
  C16       1.949  1.900  0.770   12.000    Y    Y      Y    6-31g**
  C17       1.949  1.900  0.770   12.000    Y    Y      Y    6-31g**
  C18       1.949  1.900  0.770   12.000    Y    Y      Y    6-31g**
  C19       1.949  1.900  0.770   12.000    Y    Y      Y    6-31g**
  C20       1.949  1.900  0.770   12.000    Y    Y      Y    6-31g**
  Si21      2.217  2.147  1.110   27.977    Y    Y      Y    6-31g**
  O22       1.702  1.600  0.730   15.995    Y    Y      Y    6-31g**
  C23       1.949  1.900  0.770   12.000    Y    Y      Y    6-31g**
  C24       1.949  1.900  0.770   12.000    Y    Y      Y    6-31g**
  P25       2.147  2.074  1.060   30.974    Y    Y      Y    6-31g**
  O26       1.702  1.600  0.730   15.995    Y    Y      Y    6-31g**
  O27       1.702  1.600  0.730   15.995    Y    Y      Y    6-31g**
  C28       1.949  1.900  0.770   12.000    Y    Y      Y    6-31g**
  C29       1.949  1.900  0.770   12.000    Y    Y      Y    6-31g**
  C30       1.949  1.900  0.770   12.000    Y    Y      Y    6-31g**
  C31       1.949  1.900  0.770   12.000    Y    Y      Y    6-31g**
  C32       1.949  1.900  0.770   12.000    Y    Y      Y    6-31g**
  C33       1.949  1.900  0.770   12.000    Y    Y      Y    6-31g**
  C34       1.949  1.900  0.770   12.000    Y    Y      Y    6-31g**
  C35       1.949  1.900  0.770   12.000    Y    Y      Y    6-31g**
  C36       1.949  1.900  0.770   12.000    Y    Y      Y    6-31g**
  C37       1.949  1.900  0.770   12.000    Y    Y      Y    6-31g**
  C38       1.949  1.900  0.770   12.000    Y    Y      Y    6-31g**
  C39       1.949  1.900  0.770   12.000    Y    Y      Y    6-31g**
  C40       1.949  1.900  0.770   12.000    Y    Y      Y    6-31g**
  C41       1.949  1.900  0.770   12.000    Y    Y      Y    6-31g**
  C42       1.949  1.900  0.770   12.000    Y    Y      Y    6-31g**
  C43       1.949  1.900  0.770   12.000    Y    Y      Y    6-31g**
  C44       1.949  1.900  0.770   12.000    Y    Y      Y    6-31g**
  C45       1.949  1.900  0.770   12.000    Y    Y      Y    6-31g**
  C46       1.949  1.900  0.770   12.000    Y    Y      Y    6-31g**
  C47       1.949  1.900  0.770   12.000    Y    Y      Y    6-31g**
  C48       1.949  1.900  0.770   12.000    Y    Y      Y    6-31g**
  C49       1.949  1.900  0.770   12.000    Y    Y      Y    6-31g**
  C50       1.949  1.900  0.770   12.000    Y    Y      Y    6-31g**
  C51       1.949  1.900  0.770   12.000    Y    Y      Y    6-31g**
  C52       1.949  1.900  0.770   12.000    Y    Y      Y    6-31g**
  C53       1.949  1.900  0.770   12.000    Y    Y      Y    6-31g**
  C54       1.949  1.900  0.770   12.000    Y    Y      Y    6-31g**
  C55       1.949  1.900  0.770   12.000    Y    Y      Y    6-31g**
  C56       1.949  1.900  0.770   12.000    Y    Y      Y    6-31g**
  C57       1.949  1.900  0.770   12.000    Y    Y      Y    6-31g**
  C58       1.949  1.900  0.770   12.000    Y    Y      Y    6-31g**
  C59       1.949  1.900  0.770   12.000    Y    Y      Y    6-31g**
  C60       1.949  1.900  0.770   12.000    Y    Y      Y    6-31g**
  C61       1.949  1.900  0.770   12.000    Y    Y      Y    6-31g**
  C62       1.949  1.900  0.770   12.000    Y    Y      Y    6-31g**
  C63       1.949  1.900  0.770   12.000    Y    Y      Y    6-31g**
  C64       1.949  1.900  0.770   12.000    Y    Y      Y    6-31g**
  C65       1.949  1.900  0.770   12.000    Y    Y      Y    6-31g**
  C66       1.949  1.900  0.770   12.000    Y    Y      Y    6-31g**
  C67       1.949  1.900  0.770   12.000    Y    Y      Y    6-31g**
  C68       1.949  1.900  0.770   12.000    Y    Y      Y    6-31g**
  C69       1.949  1.900  0.770   12.000    Y    Y      Y    6-31g**
  C70       1.949  1.900  0.770   12.000    Y    Y      Y    6-31g**
  N71       1.831  1.600  0.750   14.003    Y    Y      Y    6-31g**
  S72       2.070  1.900  1.020   31.972    Y    Y      Y    6-31g**
  O73       1.702  1.600  0.730   15.995    Y    Y      Y    6-31g**
  O74       1.702  1.600  0.730   15.995    Y    Y      Y    6-31g**
  C75       1.949  1.900  0.770   12.000    Y    Y      Y    6-31g**
  C76       1.949  1.900  0.770   12.000    Y    Y      Y    6-31g**
  C77       1.949  1.900  0.770   12.000    Y    Y      Y    6-31g**
  C78       1.949  1.900  0.770   12.000    Y    Y      Y    6-31g**
  C79       1.949  1.900  0.770   12.000    Y    Y      Y    6-31g**
  N80       1.831  1.600  0.750   14.003    Y    Y      Y    6-31g**
  N81       1.831  1.600  0.750   14.003    Y    Y      Y    6-31g**
  C82       1.949  1.900  0.770   12.000    Y    Y      Y    6-31g**
  C83       1.949  1.900  0.770   12.000    Y    Y      Y    6-31g**
  C84       1.949  1.900  0.770   12.000    Y    Y      Y    6-31g**
  C85       1.949  1.900  0.770   12.000    Y    Y      Y    6-31g**
  H86       1.597  1.150  0.320    1.008    Y    Y      Y    6-31g**
  H87       1.597  1.150  0.320    1.008    Y    Y      Y    6-31g**
  H88       1.597  1.150  0.320    1.008    Y    Y      Y    6-31g**
  H89       1.597  1.150  0.320    1.008    Y    Y      Y    6-31g**
  H90       1.597  1.150  0.320    1.008    Y    Y      Y    6-31g**
  H91       1.597  1.150  0.320    1.008    Y    Y      Y    6-31g**
  H92       1.597  1.150  0.320    1.008    Y    Y      Y    6-31g**
  H93       1.597  1.150  0.320    1.008    Y    Y      Y    6-31g**
  H94       1.597  1.150  0.320    1.008    Y    Y      Y    6-31g**
  H95       1.597  1.150  0.320    1.008    Y    Y      Y    6-31g**
  H96       1.597  1.150  0.320    1.008    Y    Y      Y    6-31g**
  H97       1.597  1.150  0.320    1.008    Y    Y      Y    6-31g**
  H98       1.597  1.150  0.320    1.008    Y    Y      Y    6-31g**
  H99       1.597  1.150  0.320    1.008    Y    Y      Y    6-31g**
  H100      1.597  1.150  0.320    1.008    Y    Y      Y    6-31g**
  H101      1.597  1.150  0.320    1.008    Y    Y      Y    6-31g**
  H102      1.597  1.150  0.320    1.008    Y    Y      Y    6-31g**
  H103      1.597  1.150  0.320    1.008    Y    Y      Y    6-31g**
  H104      1.597  1.150  0.320    1.008    Y    Y      Y    6-31g**
  H105      1.597  1.150  0.320    1.008    Y    Y      Y    6-31g**
  H106      1.597  1.150  0.320    1.008    Y    Y      Y    6-31g**
  H107      1.597  1.150  0.320    1.008    Y    Y      Y    6-31g**
  H108      1.597  1.150  0.320    1.008    Y    Y      Y    6-31g**
  H109      1.597  1.150  0.320    1.008    Y    Y      Y    6-31g**
  H110      1.597  1.150  0.320    1.008    Y    Y      Y    6-31g**
  H111      1.597  1.150  0.320    1.008    Y    Y      Y    6-31g**
  H112      1.597  1.150  0.320    1.008    Y    Y      Y    6-31g**
  H113      1.597  1.150  0.320    1.008    Y    Y      Y    6-31g**
  H114      1.597  1.150  0.320    1.008    Y    Y      Y    6-31g**
  H115      1.597  1.150  0.320    1.008    Y    Y      Y    6-31g**
  H116      1.597  1.150  0.320    1.008    Y    Y      Y    6-31g**
  H117      1.597  1.150  0.320    1.008    Y    Y      Y    6-31g**
  H118      1.597  1.150  0.320    1.008    Y    Y      Y    6-31g**
  H119      1.597  1.150  0.320    1.008    Y    Y      Y    6-31g**
  H120      1.597  1.150  0.320    1.008    Y    Y      Y    6-31g**
  H121      1.597  1.150  0.320    1.008    Y    Y      Y    6-31g**
  H122      1.597  1.150  0.320    1.008    Y    Y      Y    6-31g**
  H123      1.597  1.150  0.320    1.008    Y    Y      Y    6-31g**
  H124      1.597  1.150  0.320    1.008    Y    Y      Y    6-31g**
  H125      1.597  1.150  0.320    1.008    Y    Y      Y    6-31g**
  H126      1.597  1.150  0.320    1.008    Y    Y      Y    6-31g**
  H127      1.597  1.150  0.320    1.008    Y    Y      Y    6-31g**
  H128      1.597  1.150  0.320    1.008    Y    Y      Y    6-31g**
  H129      1.597  1.150  0.320    1.008    Y    Y      Y    6-31g**
  H130      1.597  1.150  0.320    1.008    Y    Y      Y    6-31g**
  H131      1.597  1.150  0.320    1.008    Y    Y      Y    6-31g**
  H132      1.597  1.150  0.320    1.008    Y    Y      Y    6-31g**
  H133      1.597  1.150  0.320    1.008    Y    Y      Y    6-31g**
  H134      1.597  1.150  0.320    1.008    Y    Y      Y    6-31g**
  H135      1.597  1.150  0.320    1.008    Y    Y      Y    6-31g**
  H136      1.597  1.150  0.320    1.008    Y    Y      Y    6-31g**
  H137      1.597  1.150  0.320    1.008    Y    Y      Y    6-31g**
  H138      1.597  1.150  0.320    1.008    Y    Y      Y    6-31g**
  H139      1.597  1.150  0.320    1.008    Y    Y      Y    6-31g**
  H140      1.597  1.150  0.320    1.008    Y    Y      Y    6-31g**
  H141      1.597  1.150  0.320    1.008    Y    Y      Y    6-31g**
  
  Peak memory usage:    526 Mb
  
  end of program pre
   
 Time(pre)  user:        0.0  user+sys:        0.0  wallclock:        0.4
  
  start of program onee
  
  smallest eigenvalue of S:    2.294E-04
  number of canonical orbitals.....         1564
  Peak memory usage:    700 Mb
  
  end of program onee
   
 Time(onee)  user:       23.0  user+sys:       24.0  wallclock:       28.1
  
  start of program hfig
  
  initial wavefunction generated automatically from atomic wavefunctions
 
  Irreducible     Total no   No of occupied orbitals 
  representation  orbitals   Shell_1  Shell_2    ...
  No Symm         1564        308
  ------------------------
  Orbital occupation/shell    1.000
 
  Peak memory usage:    639 Mb
  
  end of program hfig
   
 Time(hfig)  user:       35.0  user+sys:       35.0  wallclock:       58.0
  
  start of program probe
  
  Peak memory usage:    633 Mb
  
  end of program probe
   
 Time(probe)  user:       32.0  user+sys:       32.0  wallclock:       46.5
  
  start of program grid
  
  
   grid     grid set  grid #  grid sym
  ------    --------  ------  --------
  coarse        0        0        1
  medium        2        1        1
  fine          0        0        1
  ultrafine     4        2        1
  charge       -1        3        1
  gradient      4        2        1
  density       0        0        1
  DFT-fine    -13        4        1
  DFT-med.    -13        4        1
  DFT-grad    -13        4        1
  DFT-der2      0        0        1
  DFT-cphf      0        0        1
  LMP2-enrg     4        2        1
  LMP2-grad     2        1        1
  DFT-cphf2     0        0        1
  PBF-dens      0        0        1
  plotting      0        0        1
  
   
  number of gridpoints: 
     atom        C1       C2       C3       C4       C5       C6       C7
  grid # 1       97      102       94      102      100       96       92
  grid # 2      338      360      337      366      358      336      335
  grid # 3       34       29       44       49       15       48       25
  grid # 4    14816    14816    14816    14816    14816    14816    14816
   
  number of gridpoints: 
     atom        C8       C9      C10      C11      O12     Si13      C14
  grid # 1       94       96      100      100      112      474      101
  grid # 2      336      355      353      356      437      474      353
  grid # 3       49       16       10       10       41       12        7
  grid # 4    14816    14816    14816    14816    23902    22912    14816
   
  number of gridpoints: 
     atom       C15      C16      C17      C18      C19      C20     Si21
  grid # 1       98      101       96       93       97      100      477
  grid # 2      358      362      334      332      338      358      477
  grid # 3       23       24       13       18       36        8        7
  grid # 4    14816    14816    14816    14816    14816    14816    22912
   
  number of gridpoints: 
     atom       O22      C23      C24      P25      O26      O27      C28
  grid # 1      112       93       93      445      114      113      100
  grid # 2      439      337      338      445      452      427      359
  grid # 3       55       25       36        9       75       31        6
  grid # 4    23902    14816    14816    23204    23902    23902    14816
   
  number of gridpoints: 
     atom       C29      C30      C31      C32      C33      C34      C35
  grid # 1      101       99      100       99      100       92       94
  grid # 2      358      357      354      359      356      333      330
  grid # 3       10        8        9        9        9       14        8
  grid # 4    14816    14816    14816    14816    14816    14816    14816
   
  number of gridpoints: 
     atom       C36      C37      C38      C39      C40      C41      C42
  grid # 1       92       96       92       95       92       96       92
  grid # 2      335      339      332      335      333      339      337
  grid # 3       18       30       13       17       16       30       28
  grid # 4    14816    14816    14816    14816    14816    14816    14816
   
  number of gridpoints: 
     atom       C43      C44      C45      C46      C47      C48      C49
  grid # 1       94       92       94       93       93       92       93
  grid # 2      336      334      335      330      333      333      335
  grid # 3       19       17       18       20       24       17       39
  grid # 4    14816    14816    14816    14816    14816    14816    14816
   
  number of gridpoints: 
     atom       C50      C51      C52      C53      C54      C55      C56
  grid # 1       94       94       93       93       93       93       93
  grid # 2      335      336      330      333      334      330      334
  grid # 3       46       42       23       28       27       26       34
  grid # 4    14816    14816    14816    14816    14816    14816    14816
   
  number of gridpoints: 
     atom       C57      C58      C59      C60      C61      C62      C63
  grid # 1       94       94       94       93       93       93       94
  grid # 2      336      335      335      335      334      334      333
  grid # 3       38       46       48       36       33       33       30
  grid # 4    14816    14816    14816    14816    14816    14816    14816
   
  number of gridpoints: 
     atom       C64      C65      C66      C67      C68      C69      C70
  grid # 1       96       96       99       95       95       97       92
  grid # 2      332      335      357      333      332      332      324
  grid # 3       43       37       28       21       25       42        6
  grid # 4    14816    14816    14816    14816    14816    14816    14816
   
  number of gridpoints: 
     atom       N71      S72      O73      O74      C75      C76      C77
  grid # 1      101      445      122      118       98       96       96
  grid # 2      358      445      488      473      358      329      330
  grid # 3       34       10      220       65       24       28       32
  grid # 4    15000    32664    23902    23902    14816    14816    14816
   
  number of gridpoints: 
     atom       C78      C79      N80      N81      C82      C83      C84
  grid # 1       96       96      112       97       95       93       93
  grid # 2      328      336      412      345      328      330      326
  grid # 3       31       26       46       10       14       17        7
  grid # 4    14816    14816    15000    15000    14816    14816    14816
   
  number of gridpoints: 
     atom       C85      H86      H87      H88      H89      H90      H91
  grid # 1       91      112      118      118      110      118      113
  grid # 2      322      432      453      446      426      453      433
  grid # 3        6      223      415      360      175      424      233
  grid # 4    14816    16416    16416    16416    16416    16416    16416
   
  number of gridpoints: 
     atom       H92      H93      H94      H95      H96      H97      H98
  grid # 1      112      118      117      118       98      107      111
  grid # 2      430      442      449      450      385      419      436
  grid # 3      211      362      394      407       57      125      260
  grid # 4    16416    16416    16416    16416    16416    16416    16416
   
  number of gridpoints: 
     atom       H99     H100     H101     H102     H103     H104     H105
  grid # 1      112      111      110      112      107      111      111
  grid # 2      438      433      424      430      414      431      434
  grid # 3      267      241      165      241      114      230      202
  grid # 4    16416    16416    16416    16416    16416    16416    16416
   
  number of gridpoints: 
     atom      H106     H107     H108     H109     H110     H111     H112
  grid # 1      112      112      106      112      117      117      118
  grid # 2      435      438      410      440      448      448      452
  grid # 3      257      271      102      277      360      373      414
  grid # 4    16416    16416    16416    16416    16416    16416    16416
   
  number of gridpoints: 
     atom      H113     H114     H115     H116     H117     H118     H119
  grid # 1      118      118      112      117      117      116      118
  grid # 2      453      453      434      449      452      446      452
  grid # 3      423      425      253      373      413      339      414
  grid # 4    16416    16416    16416    16416    16416    16416    16416
   
  number of gridpoints: 
     atom      H120     H121     H122     H123     H124     H125     H126
  grid # 1      118      118      118      118      117      115      114
  grid # 2      453      453      453      452      451      447      435
  grid # 3      425      413      424      420      388      345      267
  grid # 4    16416    16416    16416    16416    16416    16416    16416
   
  number of gridpoints: 
     atom      H127     H128     H129     H130     H131     H132     H133
  grid # 1      118      112      104      109      118      105      113
  grid # 2      450      435      404      426      450      412      444
  grid # 3      412      263       74      182      411      131      312
  grid # 4    16416    16416    16416    16416    16416    16416    16416
   
  number of gridpoints: 
     atom      H134     H135     H136     H137     H138     H139     H140
  grid # 1      117      117      111      100      110      117      114
  grid # 2      453      449      432      393      435      459      448
  grid # 3      420      383      199       77      208      431      349
  grid # 4    16416    16416    16416    16416    16416    16416    16416
   
  number of gridpoints: 
     atom      H141    total
  grid # 1      105    16052
  grid # 2      411    54623
  grid # 3       88    18812
  grid # 4    16416  2276152
   
  Peak memory usage:    666 Mb
  
  end of program grid
   
 Time(grid)  user:      338.0  user+sys:      339.0  wallclock:      514.1
  
  start of program rwr
  
  Peak memory usage:    648 Mb
  
  end of program rwr
   
 Time(rwr)  user:       61.0  user+sys:       67.0  wallclock:      122.3
  
  start of program scf
  
 number of electrons..........        616
 number of alpha electrons....        308
 number of beta electrons.....        308
 number of orbitals, total....       1564
 number of doubly-occ'd orbs..        308
 number of open shell orbs....          0
 number of occupied orbitals..        308
 number of virtual orbitals...       1256
 number of hamiltonians.......          1
 number of shells.............          1
 SCF type: DFT=Becke_3_Parameter/HF+Slater+Becke88+VWN+LYP (B3LYP)
  
       i  u  d  i  g                   
       t  p  i  c  r                                 RMS    maximum
       e  d  i  u  i                       energy  density   DIIS  
       r  t  s  t  d       total energy    change  change    error 
  
etot    1  N  N  1  U   -4700.97390251403           3.1E-03  9.7E-02
etot    2  N  Y  1  U   -4699.81735684798 -1.2E+00  4.4E-03  1.2E-01
etot    3  N  Y  1  U   -4656.39494949848 -4.3E+01  5.5E-03  2.2E-01
etot    4  N  Y  1  U   -4689.86824016877  3.3E+01  4.4E-03  1.2E-01
etot    5  N  Y  1  U   -4704.97716107231  1.5E+01  3.0E-03  6.2E-02
etot    6  N  Y  1  U   -4692.05803126781 -1.3E+01  2.6E-03  1.5E-01
etot    7  N  Y  1  U   -4711.27413551349  1.9E+01  6.7E-04  2.3E-02
etot    8  N  Y  1  U   -4711.31479384796  4.1E-02  3.5E-04  2.8E-02
etot    9  N  Y  1  U   -4711.49448179615  1.8E-01  1.2E-04  5.9E-03
etot   10  N  Y  1  U   -4711.51341572003  1.9E-02  5.0E-05  2.6E-03
etot   11  N  Y  1  U   -4711.51639058494  3.0E-03  2.8E-05  1.7E-03
etot   12  N  Y  1  U   -4711.51793839334  1.5E-03  2.1E-05  1.0E-03
etot   13  N  Y  1  U   -4711.51864709082  7.1E-04  1.4E-05  6.4E-04
etot   14  N  Y  1  U   -4711.51892629430  2.8E-04  8.5E-06  3.0E-04
etot   15  N  Y  1  U   -4711.51902648777  1.0E-04  4.2E-06  1.2E-04
etot   16  N  N  1  U   -4711.51904286991  1.6E-05  0.0E+00  0.0E+00
  
  
 Energy components, in hartrees:
   (A)  Nuclear repulsion............   17410.34291003763
   (E)  Total one-electron terms.....  -41164.16600723984
   (F)    Electron-nuclear...........  -45838.53879296180
   (H)    Kinetic....................    4674.37278572195
   (I)  Total two-electron terms.....   19042.30405433230
   (J)    Coulomb....................   19617.40390658578
   (K)    Exchange+Correlation.......    -575.09985225348
   (L)  Electronic energy............  -22121.86195290754  (E+I)
   (M)  -V/T.........................       2.00794678962  (-(A+F+I)/H)
   (N)  Total energy.................   -4711.51904286991  (A+L)
  
 SCFE: SCF energy: DFT(b3lyp)     -4711.51904286991 hartrees   iterations:  16
  
 
 HOMO energy:    -0.20214
 LUMO energy:    -0.08743
 
  Orbital energies (hartrees): 
   -89.11346   -77.21300   -66.10863   -66.10109   -19.17395   -19.17183
   -19.15008   -19.14584   -19.09724   -19.08521   -14.37655   -14.37157
   -14.35449   -10.28257   -10.26504   -10.24985   -10.24720   -10.24060
   -10.23995   -10.23064   -10.22711   -10.22530   -10.22071   -10.21486
   -10.20679   -10.20518   -10.20334   -10.20281   -10.20184   -10.19912
   -10.19890   -10.19776   -10.19773   -10.19748   -10.19689   -10.19340
   -10.19256   -10.19244   -10.19211   -10.19088   -10.19066   -10.19027
   -10.18631   -10.18600   -10.18548   -10.18526   -10.18474   -10.18472
   -10.18428   -10.18413   -10.18372   -10.18367   -10.18347   -10.18340
   -10.18254   -10.18152   -10.18127   -10.18057   -10.18023   -10.17931
   -10.17788   -10.17721   -10.17569   -10.17565   -10.17556   -10.17535
   -10.17407   -10.17331   -10.17319   -10.17292   -10.17268   -10.17222
   -10.17217   -10.17198   -10.17032   -10.16944   -10.16897   -10.16871
   -10.16831   -10.16787   -10.16593   -10.16119   -10.15809   -10.15663
   -10.15337    -8.14013    -6.65702    -6.10509    -6.10406    -6.10297
    -5.25534    -5.24787    -4.82203    -4.82054    -4.81849    -3.61431
    -3.61403    -3.61363    -3.60695    -3.60653    -3.60608    -1.11483
    -1.08258    -1.04075    -1.00302    -0.98679    -0.97084    -0.96690
    -0.94408    -0.91964    -0.87153    -0.86579    -0.85739    -0.83857
    -0.83551    -0.83230    -0.82741    -0.82615    -0.82506    -0.82169
    -0.81506    -0.80567    -0.79823    -0.78828    -0.78634    -0.77728
    -0.75579    -0.75248    -0.74489    -0.73810    -0.73792    -0.73720
    -0.73577    -0.73153    -0.73152    -0.73147    -0.72879    -0.72703
    -0.72663    -0.72378    -0.72317    -0.72223    -0.72010    -0.71703
    -0.70874    -0.70340    -0.66424    -0.65345    -0.64368    -0.62664
    -0.61835    -0.61268    -0.60976    -0.60634    -0.60190    -0.59691
    -0.59570    -0.58981    -0.58907    -0.58843    -0.58726    -0.58551
    -0.58350    -0.58126    -0.58029    -0.57729    -0.57620    -0.57371
    -0.57257    -0.57077    -0.56823    -0.56508    -0.56191    -0.55509
    -0.53686    -0.53365    -0.52688    -0.52328    -0.51918    -0.51614
    -0.50338    -0.50164    -0.50152    -0.50080    -0.49771    -0.49655
    -0.49465    -0.49225    -0.48828    -0.48199    -0.47418    -0.46814
    -0.46592    -0.46317    -0.46160    -0.45855    -0.45594    -0.45272
    -0.44862    -0.44760    -0.44554    -0.44448    -0.44133    -0.44010
    -0.43965    -0.43742    -0.43585    -0.43425    -0.43275    -0.43127
    -0.43038    -0.42929    -0.42677    -0.42631    -0.42566    -0.42485
    -0.42310    -0.42296    -0.42100    -0.42026    -0.41977    -0.41813
    -0.41538    -0.41480    -0.41263    -0.41143    -0.40869    -0.40679
    -0.40617    -0.40463    -0.40338    -0.40228    -0.39874    -0.39690
    -0.39569    -0.39237    -0.38658    -0.38109    -0.37882    -0.37766
    -0.37621    -0.37445    -0.37182    -0.37021    -0.36617    -0.36345
    -0.35778    -0.35544    -0.35392    -0.35256    -0.35166    -0.34910
    -0.34764    -0.34625    -0.34402    -0.34009    -0.33881    -0.33584
    -0.33405    -0.33365    -0.33235    -0.32999    -0.32606    -0.32538
    -0.32509    -0.32412    -0.32298    -0.31846    -0.31644    -0.31476
    -0.31194    -0.30918    -0.30748    -0.30521    -0.30143    -0.29756
    -0.29078    -0.28903    -0.28576    -0.28311    -0.28227    -0.28120
    -0.27656    -0.27582    -0.27361    -0.27232    -0.26711    -0.26228
    -0.25840    -0.25543    -0.25142    -0.24640    -0.24536    -0.24423
    -0.24260    -0.24258    -0.23961    -0.23457    -0.23370    -0.23268
    -0.23175    -0.23036    -0.22583    -0.22579    -0.22413    -0.22254
    -0.21672    -0.20214    -0.08743    -0.05051    -0.04625    -0.03612
    -0.02360    -0.01390    -0.01196    -0.01017    -0.00727    -0.00436
 
  Peak memory usage:    843 Mb
  
  end of program scf
   
 Time(scf)  user:    10897.0  user+sys:    11009.0  wallclock:    17815.2
  
  start of program ch
  
  gridpoints used for charge fit        16302
    out of a possible maximum of        18812
  
   Electrostatic potential fitting constrained to reproduce
     total charge:                yes
     dipole moment:               no 
     traceless quadrupole moment: no 
     traceless octapole moment:   no 
  
  Atomic charges from electrostatic potential: 
   
 Atom       C1           C2           C3           C4           C5      
 Charge   -0.08901     -0.01121     -0.16072      0.16362     -0.01491
   
 Atom       C6           C7           C8           C9           C10     
 Charge   -0.19647     -0.28292     -0.10280      0.13070     -0.11606
   
 Atom       C11          O12          Si13         C14          C15     
 Charge    0.00989     -0.33430     -0.01917      0.21636      0.25190
   
 Atom       C16          C17          C18          C19          C20     
 Charge    0.22519     -0.21364     -0.42422     -0.25069     -0.10047
   
 Atom       Si21         O22          C23          C24          P25     
 Charge    0.10841     -0.31657     -0.13326     -0.10552      1.01370
   
 Atom       O26          O27          C28          C29          C30     
 Charge   -0.57941     -0.73225      0.29990      0.18299      0.05430
   
 Atom       C31          C32          C33          C34          C35     
 Charge    0.11022     -0.00208      0.23183     -0.31006     -0.26644
   
 Atom       C36          C37          C38          C39          C40     
 Charge   -0.15331     -0.25395     -0.10273     -0.16681     -0.03799
   
 Atom       C41          C42          C43          C44          C45     
 Charge   -0.22614     -0.10941     -0.11803     -0.25538     -0.20719
   
 Atom       C46          C47          C48          C49          C50     
 Charge   -0.05871     -0.14705     -0.07814     -0.12563     -0.15023
   
 Atom       C51          C52          C53          C54          C55     
 Charge   -0.06562     -0.12580     -0.09883     -0.13121     -0.17169
   
 Atom       C56          C57          C58          C59          C60     
 Charge   -0.11859     -0.10699     -0.14102     -0.11459     -0.11340
   
 Atom       C61          C62          C63          C64          C65     
 Charge   -0.09846     -0.14219     -0.08817     -0.09674     -0.21727
   
 Atom       C66          C67          C68          C69          C70     
 Charge    0.20554     -0.09160     -0.05473     -0.16108      0.05316
   
 Atom       N71          S72          O73          O74          C75     
 Charge   -0.59908      0.71749     -0.45440     -0.39111      0.46138
   
 Atom       C76          C77          C78          C79          N80     
 Charge   -0.38496      0.11767     -0.36234      0.38601     -0.48598
   
 Atom       N81          C82          C83          C84          C85     
 Charge   -0.13022     -0.08462     -0.14098     -0.23034      0.08257
   
 Atom       H86          H87          H88          H89          H90     
 Charge    0.08399      0.12989      0.12780      0.14182      0.11742
   
 Atom       H91          H92          H93          H94          H95     
 Charge    0.12724      0.18967      0.14851      0.12554      0.11569
   
 Atom       H96          H97          H98          H99          H100    
 Charge    0.52573      0.15733      0.14265      0.10539      0.12615
   
 Atom       H101         H102         H103         H104         H105    
 Charge    0.11247      0.11986      0.11233      0.12920      0.12222
   
 Atom       H106         H107         H108         H109         H110    
 Charge    0.08961      0.14704      0.08209      0.08751      0.10927
   
 Atom       H111         H112         H113         H114         H115    
 Charge    0.11333      0.11805      0.12126      0.10838      0.08931
   
 Atom       H116         H117         H118         H119         H120    
 Charge    0.10442      0.12141      0.11293      0.11654      0.11522
   
 Atom       H121         H122         H123         H124         H125    
 Charge    0.11715      0.11589      0.11587      0.12479      0.11369
   
 Atom       H126         H127         H128         H129         H130    
 Charge    0.09007      0.12664      0.12625      0.05925      0.11022
   
 Atom       H131         H132         H133         H134         H135    
 Charge    0.13024      0.14318      0.19093      0.10592      0.16687
   
 Atom       H136         H137         H138         H139         H140    
 Charge   -0.00413      0.31976      0.17018      0.14005      0.15709
   
 Atom       H141    
 Charge    0.11486
  
  sum of atomic charges:     0.000000
   
 RMS Error   8.73E-04 hartrees
 
  Peak memory usage:    584 Mb
  
  end of program ch
   
 Time(ch)  user:       18.0  user+sys:       19.0  wallclock:       37.1
  
  start of program post
  
  Writing input files for PBF
  Peak memory usage:    534 Mb
  
  end of program post
   
 Time(post)  user:        0.0  user+sys:        0.0  wallclock:        0.4

  start of program pbf

Pbf Version 4.00

Molecular surface area:      818.86740   [A2]
Reaction field energy:       -12.44075   [kT]
  Peak memory usage: 556 Mb

  end of program pbf

 Time(pbf)  user:        9.3  user+sys:        9.4  wallclock:       11.8
  
  start of program solv
  
   number of surface charges from PBF   13066
   sum of surface charges     -0.00033
   
  nuclear repulsion energy.......   17410.342910038 hartrees
  Peak memory usage:    694 Mb
  
  end of program solv
   
 Time(solv)  user:       35.0  user+sys:       35.0  wallclock:       65.7
  
  start of program scf
  
  
       i  u  d  i  g                   
       t  p  i  c  r                                 RMS    maximum
       e  d  i  u  i                       energy  density   DIIS  
       r  t  s  t  d       total energy    change  change    error 
  
etot    1  N  N  1  U   -4711.54587999490           5.3E-05  8.0E-04
etot    2  N  Y  1  U   -4711.54619748212  3.2E-04  2.1E-05  7.4E-04
etot    3  N  Y  1  U   -4711.54651046026  3.1E-04  7.9E-06  3.6E-04
etot    4  N  Y  1  U   -4711.54658417177  7.4E-05  3.5E-06  1.5E-04
etot    5  N  N  1  U   -4711.54659868724  1.5E-05  0.0E+00  0.0E+00
  
  
 Energy components, in hartrees:
   (A)  Total zero-electron terms....   17412.31117314447
   (B)    Nuclear-nuclear............   17410.34291003763
   (C)    Nuclear-solvent............       1.96826310683
   (E)  Total one-electron terms.....  -41167.24915337413
   (F)    Electron-nuclear...........  -45839.66430269874
   (G)    Electron-solvent...........      -1.99654173222
   (H)    Kinetic....................    4674.41169105683
   (I)  Total two-electron terms.....   19043.39138154242
   (J)    Coulomb....................   19618.50574501952
   (K)    Exchange+Correlation.......    -575.11436347710
   (L)  Electronic energy............  -22123.85777183170  (E+I)
   (N)  Total quantum mech. energy...   -4711.54659868724  (A+L)
   (O)  Gas phase energy.............   -4711.51904286991
   (P)  Solution phase energy........   -4711.53245937454  (Q+R+S)
   (Q)    Total solute energy........   -4711.51832006185  (N-C-G)
   (R)    Total solvent energy.......      -0.01413931269  (C/2+G/2)
   (S)    Solute cavity energy.......       0.00000000000
   (U)  Reorganization energy........       0.00072280806  (Q-O)
   (V)  Solvation energy.............      -0.01341650463  (P-O)
  
 SCFE:  Solution phase energy: DFT(b3lyp)      -4711.53245937454 hartrees
        SCF iterations:   5
  
 
 HOMO energy:    -0.20412
 LUMO energy:    -0.08646
 
  Orbital energies (hartrees): 
   -89.11683   -77.21497   -66.11121   -66.10441   -19.17662   -19.17470
   -19.15318   -19.14788   -19.09850   -19.08577   -14.37538   -14.37302
   -14.35350   -10.28251   -10.26440   -10.25236   -10.25043   -10.23906
   -10.23806   -10.22618   -10.22597   -10.22238   -10.21719   -10.21390
   -10.20458   -10.20412   -10.20256   -10.20238   -10.20060   -10.19918
   -10.19893   -10.19861   -10.19811   -10.19680   -10.19620   -10.19454
   -10.19387   -10.19357   -10.19204   -10.19172   -10.19067   -10.18994
   -10.18813   -10.18780   -10.18723   -10.18711   -10.18707   -10.18696
   -10.18686   -10.18636   -10.18615   -10.18543   -10.18530   -10.18504
   -10.18453   -10.18451   -10.18416   -10.18366   -10.18294   -10.18264
   -10.18153   -10.17972   -10.17871   -10.17836   -10.17747   -10.17725
   -10.17597   -10.17586   -10.17566   -10.17545   -10.17545   -10.17541
   -10.17504   -10.17422   -10.17364   -10.17162   -10.17123   -10.17115
   -10.17112   -10.17028   -10.16869   -10.16522   -10.16065   -10.16018
   -10.15631    -8.14337    -6.65895    -6.10833    -6.10740    -6.10616
    -5.25790    -5.25121    -4.82398    -4.82248    -4.82042    -3.61687
    -3.61660    -3.61619    -3.61028    -3.60988    -3.60941    -1.11809
    -1.08495    -1.04330    -1.00651    -0.98567    -0.97003    -0.96793
    -0.94521    -0.92085    -0.87344    -0.86439    -0.85974    -0.84105
    -0.83788    -0.83633    -0.82950    -0.82852    -0.82433    -0.82302
    -0.81668    -0.80767    -0.79733    -0.78830    -0.78623    -0.77579
    -0.75427    -0.75409    -0.74693    -0.74127    -0.74024    -0.73794
    -0.73557    -0.73542    -0.73368    -0.73322    -0.73090    -0.72974
    -0.72896    -0.72695    -0.72513    -0.72481    -0.72299    -0.71980
    -0.70831    -0.70520    -0.66301    -0.65108    -0.64538    -0.62577
    -0.61981    -0.61409    -0.60893    -0.60809    -0.60375    -0.59818
    -0.59607    -0.59165    -0.59041    -0.58961    -0.58898    -0.58773
    -0.58497    -0.58318    -0.57936    -0.57889    -0.57864    -0.57535
    -0.57400    -0.57379    -0.57058    -0.56507    -0.56223    -0.55420
    -0.53877    -0.53220    -0.52854    -0.52292    -0.52150    -0.51792
    -0.50503    -0.50326    -0.50254    -0.50009    -0.49860    -0.49716
    -0.49614    -0.49405    -0.48886    -0.48377    -0.47309    -0.46958
    -0.46677    -0.46356    -0.46139    -0.46021    -0.45806    -0.45275
    -0.45020    -0.44694    -0.44656    -0.44467    -0.44251    -0.44223
    -0.44108    -0.43884    -0.43675    -0.43590    -0.43329    -0.43247
    -0.43219    -0.42935    -0.42839    -0.42702    -0.42638    -0.42607
    -0.42469    -0.42397    -0.42240    -0.42089    -0.41946    -0.41851
    -0.41694    -0.41656    -0.41444    -0.41313    -0.41194    -0.40708
    -0.40625    -0.40521    -0.40447    -0.40091    -0.39931    -0.39783
    -0.39480    -0.39356    -0.38830    -0.38263    -0.38134    -0.38005
    -0.37799    -0.37452    -0.37317    -0.37102    -0.36595    -0.36478
    -0.35802    -0.35765    -0.35638    -0.35382    -0.35351    -0.35179
    -0.34903    -0.34796    -0.34651    -0.34270    -0.34132    -0.33791
    -0.33609    -0.33526    -0.33463    -0.33178    -0.32920    -0.32808
    -0.32727    -0.32583    -0.32513    -0.32061    -0.31843    -0.31636
    -0.31382    -0.31138    -0.30902    -0.30529    -0.30201    -0.29958
    -0.29262    -0.29114    -0.28800    -0.28521    -0.28403    -0.28145
    -0.27951    -0.27802    -0.27305    -0.27257    -0.26863    -0.26401
    -0.25800    -0.25440    -0.25279    -0.24911    -0.24809    -0.24667
    -0.24664    -0.24516    -0.24417    -0.23673    -0.23638    -0.23427
    -0.23399    -0.23291    -0.22968    -0.22794    -0.22624    -0.22515
    -0.21907    -0.20412    -0.08646    -0.04888    -0.04762    -0.03421
    -0.02654    -0.01578    -0.01298    -0.01002    -0.00756    -0.00682
 
  Peak memory usage:    839 Mb
  
  end of program scf
   
 Time(scf)  user:     2710.0  user+sys:     2740.0  wallclock:     4212.8
  
  start of program sole
  
    SCRF                   solvation energy
  iteration          Hartrees            kcal/mol
     0               0.0000000            0.0000
     1              -0.0134165           -8.4190
  
  solvation energy not yet converged... 
  
  Peak memory usage:    634 Mb
  
  end of program sole
   
 Time(sole)  user:        0.0  user+sys:        0.0  wallclock:        0.6
  
  start of program ch
  
  gridpoints used for charge fit        16302
    out of a possible maximum of        16302
  
   Electrostatic potential fitting constrained to reproduce
     total charge:                yes
     dipole moment:               no 
     traceless quadrupole moment: no 
     traceless octapole moment:   no 
  
  Atomic charges from electrostatic potential: 
   
 Atom       C1           C2           C3           C4           C5      
 Charge   -0.09073     -0.01408     -0.16933      0.16741     -0.00796
   
 Atom       C6           C7           C8           C9           C10     
 Charge   -0.20495     -0.30087     -0.10963      0.11524     -0.11438
   
 Atom       C11          O12          Si13         C14          C15     
 Charge    0.03149     -0.32332     -0.04164      0.21213      0.24025
   
 Atom       C16          C17          C18          C19          C20     
 Charge    0.23240     -0.21393     -0.43459     -0.26090     -0.08477
   
 Atom       Si21         O22          C23          C24          P25     
 Charge    0.08830     -0.30852     -0.14008     -0.10936      0.99862
   
 Atom       O26          O27          C28          C29          C30     
 Charge   -0.56693     -0.72640      0.31696      0.18988      0.05986
   
 Atom       C31          C32          C33          C34          C35     
 Charge    0.11911     -0.00095      0.24907     -0.32287     -0.28167
   
 Atom       C36          C37          C38          C39          C40     
 Charge   -0.15787     -0.25870     -0.10423     -0.17353     -0.03766
   
 Atom       C41          C42          C43          C44          C45     
 Charge   -0.23280     -0.10938     -0.11807     -0.27230     -0.21428
   
 Atom       C46          C47          C48          C49          C50     
 Charge   -0.06192     -0.15848     -0.07662     -0.13226     -0.15787
   
 Atom       C51          C52          C53          C54          C55     
 Charge   -0.07293     -0.13269     -0.10728     -0.13956     -0.17806
   
 Atom       C56          C57          C58          C59          C60     
 Charge   -0.12434     -0.11531     -0.15133     -0.12020     -0.12234
   
 Atom       C61          C62          C63          C64          C65     
 Charge   -0.10251     -0.14886     -0.09602     -0.09896     -0.22281
   
 Atom       C66          C67          C68          C69          C70     
 Charge    0.20618     -0.09552     -0.05641     -0.16870      0.05239
   
 Atom       N71          S72          O73          O74          C75     
 Charge   -0.60529      0.73693     -0.48037     -0.39459      0.45954
   
 Atom       C76          C77          C78          C79          N80     
 Charge   -0.38640      0.11944     -0.36494      0.37981     -0.49143
   
 Atom       N81          C82          C83          C84          C85     
 Charge   -0.12514     -0.08436     -0.14401     -0.23842      0.09651
   
 Atom       H86          H87          H88          H89          H90     
 Charge    0.08577      0.13744      0.13400      0.14715      0.12501
   
 Atom       H91          H92          H93          H94          H95     
 Charge    0.12900      0.19255      0.15616      0.13265      0.12229
   
 Atom       H96          H97          H98          H99          H100    
 Charge    0.52094      0.16352      0.14836      0.10874      0.12690
   
 Atom       H101         H102         H103         H104         H105    
 Charge    0.11430      0.12287      0.11149      0.13205      0.12295
   
 Atom       H106         H107         H108         H109         H110    
 Charge    0.09132      0.15332      0.08333      0.09026      0.11537
   
 Atom       H111         H112         H113         H114         H115    
 Charge    0.11865      0.12525      0.12862      0.11548      0.09473
   
 Atom       H116         H117         H118         H119         H120    
 Charge    0.11156      0.12802      0.11667      0.12351      0.12203
   
 Atom       H121         H122         H123         H124         H125    
 Charge    0.12458      0.12296      0.12358      0.13135      0.12029
   
 Atom       H126         H127         H128         H129         H130    
 Charge    0.09522      0.13340      0.13334      0.06242      0.11324
   
 Atom       H131         H132         H133         H134         H135    
 Charge    0.13689      0.14475      0.19536      0.11642      0.17491
   
 Atom       H136         H137         H138         H139         H140    
 Charge    0.00076      0.31496      0.17557      0.14649      0.16560
   
 Atom       H141    
 Charge    0.10675
  
  sum of atomic charges:     0.000000
   
 RMS Error   8.85E-04 hartrees
 
  Peak memory usage:    583 Mb
  
  end of program ch
   
 Time(ch)  user:       17.0  user+sys:       17.0  wallclock:       37.1
  
  start of program post
  
  Writing input files for PBF
  Peak memory usage:    534 Mb
  
  end of program post
   
 Time(post)  user:        0.0  user+sys:        0.0  wallclock:        0.4

  start of program pbf

Pbf Version 4.00

Molecular surface area:      818.86740   [A2]
Reaction field energy:       -14.14684   [kT]
  Peak memory usage: 556 Mb

  end of program pbf

 Time(pbf)  user:       11.2  user+sys:       11.2  wallclock:       12.9
  
  start of program solv
  
   number of surface charges from PBF   13066
   sum of surface charges     -0.00035
   
  nuclear repulsion energy.......   17410.342910038 hartrees
  Peak memory usage:    694 Mb
  
  end of program solv
   
 Time(solv)  user:       36.0  user+sys:       36.0  wallclock:       62.6
  
  start of program scf
  
  
       i  u  d  i  g                   
       t  p  i  c  r                                 RMS    maximum
       e  d  i  u  i                       energy  density   DIIS  
       r  t  s  t  d       total energy    change  change    error 
  
etot    1  N  N  1  U   -4711.54845638279           6.9E-06  9.8E-05
etot    2  N  N  1  U   -4711.54843524578 -2.1E-05  0.0E+00  0.0E+00
  
  
 Energy components, in hartrees:
   (A)  Total zero-electron terms....   17412.50255445778
   (B)    Nuclear-nuclear............   17410.34291003763
   (C)    Nuclear-solvent............       2.15964442015
   (E)  Total one-electron terms.....  -41167.94937572860
   (F)    Electron-nuclear...........  -45840.18900987587
   (G)    Electron-solvent...........      -2.19001733506
   (H)    Kinetic....................    4674.42965148232
   (I)  Total two-electron terms.....   19043.89838602504
   (J)    Coulomb....................   19619.01548851645
   (K)    Exchange+Correlation.......    -575.11710249141
   (L)  Electronic energy............  -22124.05098970357  (E+I)
   (N)  Total quantum mech. energy...   -4711.54843524578  (A+L)
   (O)  Gas phase energy.............   -4711.51904286991
   (P)  Solution phase energy........   -4711.53324878833  (Q+R+S)
   (Q)    Total solute energy........   -4711.51806233087  (N-C-G)
   (R)    Total solvent energy.......      -0.01518645745  (C/2+G/2)
   (S)    Solute cavity energy.......       0.00000000000
   (U)  Reorganization energy........       0.00098053904  (Q-O)
   (V)  Solvation energy.............      -0.01420591842  (P-O)
  
 SCFE:  Solution phase energy: DFT(b3lyp)      -4711.53324878833 hartrees
        SCF iterations:   2
  
 
 HOMO energy:    -0.22484
 LUMO energy:    -0.08530
 
  Orbital energies (hartrees): 
   -52.12117   -44.88750   -43.78707   -33.22297   -31.11894   -29.08949
   -26.44133   -23.80853   -23.69499   -23.58547   -23.45820   -21.89634
   -21.18887   -15.89237   -15.21678   -13.67903   -12.53487   -12.17791
   -11.70829   -11.69475   -11.43335   -11.34160   -11.32455   -11.23310
   -11.18496   -11.17334   -11.16859   -10.97030   -10.80843   -10.79178
   -10.68804   -10.61202   -10.55464   -10.52398   -10.49243   -10.47418
   -10.46153   -10.45112   -10.44362   -10.43288   -10.31792   -10.30206
   -10.28963   -10.27683   -10.27198   -10.25812   -10.22399   -10.15308
   -10.13190   -10.11033   -10.10252   -10.09787   -10.09730   -10.09517
   -10.06014   -10.04824   -10.04255   -10.04078   -10.02217    -9.98438
    -9.98412    -9.97944    -9.97696    -9.96213    -9.88482    -9.84385
    -9.83501    -9.81976    -9.81305    -9.81145    -9.79765    -9.77256
    -9.75076    -9.73634    -9.67181    -9.66799    -9.62438    -9.48815
    -9.37345    -9.32469    -9.29221    -9.13891    -9.10741    -9.10561
    -9.02399    -9.02039    -8.95770    -8.78145    -8.77879    -8.12200
    -8.10232    -7.83458    -7.68721    -7.32333    -7.03767    -6.95296
    -6.93760    -5.92019    -5.76212    -5.51438    -4.67592    -1.09356
    -0.92448    -0.91172    -0.89643    -0.88377    -0.86243    -0.84789
    -0.84440    -0.83521    -0.83424    -0.82953    -0.81674    -0.80991
    -0.80452    -0.80124    -0.80020    -0.79967    -0.79424    -0.78479
    -0.77262    -0.76727    -0.76691    -0.76592    -0.76292    -0.75794
    -0.74859    -0.73260    -0.72966    -0.72553    -0.72420    -0.71735
    -0.71178    -0.71130    -0.71049    -0.71005    -0.70954    -0.70633
    -0.70512    -0.70447    -0.68869    -0.68491    -0.67811    -0.66901
    -0.66532    -0.64735    -0.64629    -0.61449    -0.61099    -0.60354
    -0.59102    -0.58965    -0.58026    -0.57987    -0.57928    -0.57765
    -0.57153    -0.56691    -0.56572    -0.56210    -0.55901    -0.55562
    -0.55013    -0.54003    -0.53752    -0.53455    -0.53380    -0.53179
    -0.53074    -0.52888    -0.52368    -0.51845    -0.51513    -0.51303
    -0.51220    -0.51065    -0.50953    -0.50873    -0.50809    -0.50700
    -0.50683    -0.50439    -0.50339    -0.50183    -0.50046    -0.49962
    -0.49858    -0.49855    -0.49819    -0.49680    -0.49675    -0.49569
    -0.49467    -0.49386    -0.49091    -0.49063    -0.48513    -0.48281
    -0.48280    -0.47910    -0.47781    -0.47205    -0.47194    -0.47091
    -0.47020    -0.46887    -0.46734    -0.46620    -0.46480    -0.46458
    -0.46281    -0.46245    -0.46033    -0.45854    -0.45614    -0.45541
    -0.45440    -0.44992    -0.44820    -0.44698    -0.44332    -0.43842
    -0.43813    -0.43802    -0.43776    -0.43520    -0.43458    -0.43093
    -0.42288    -0.42098    -0.42048    -0.41919    -0.41882    -0.41496
    -0.41479    -0.41160    -0.41153    -0.41118    -0.40951    -0.40935
    -0.40515    -0.40149    -0.39900    -0.39819    -0.39599    -0.39357
    -0.39274    -0.39101    -0.38933    -0.38901    -0.38899    -0.38880
    -0.38851    -0.38845    -0.38695    -0.38683    -0.38564    -0.38506
    -0.38106    -0.38104    -0.38033    -0.38025    -0.37943    -0.37717
    -0.37699    -0.37697    -0.37693    -0.37681    -0.37606    -0.37523
    -0.37499    -0.37343    -0.37256    -0.37171    -0.36944    -0.36903
    -0.36219    -0.36156    -0.36144    -0.35433    -0.35407    -0.35381
    -0.34334    -0.34252    -0.32386    -0.32275    -0.32269    -0.32179
    -0.31173    -0.30256    -0.28494    -0.27529    -0.26359    -0.25946
    -0.25885    -0.25384    -0.25202    -0.25109    -0.25065    -0.25046
    -0.25006    -0.24961    -0.24442    -0.24288    -0.24255    -0.23960
    -0.22605    -0.22484    -0.08530    -0.04781    -0.04711    -0.03333
    -0.02638    -0.01526    -0.01254    -0.00949    -0.00738    -0.00625
 
  Peak memory usage:    839 Mb
  
  end of program scf
   
 Time(scf)  user:      723.0  user+sys:      731.0  wallclock:     1217.8
  
  start of program sole
  
    SCRF                   solvation energy
  iteration          Hartrees            kcal/mol
     0               0.0000000            0.0000
     1              -0.0134165           -8.4190
     2              -0.0142059           -8.9143
  
  solvation energy not yet converged... 
  
  Peak memory usage:    634 Mb
  
  end of program sole
   
 Time(sole)  user:        0.0  user+sys:        0.0  wallclock:        0.3
  
  start of program ch
  
  gridpoints used for charge fit        16302
    out of a possible maximum of        16302
  
   Electrostatic potential fitting constrained to reproduce
     total charge:                yes
     dipole moment:               no 
     traceless quadrupole moment: no 
     traceless octapole moment:   no 
  
  Atomic charges from electrostatic potential: 
   
 Atom       C1           C2           C3           C4           C5      
 Charge   -0.09164     -0.01421     -0.16895      0.16799     -0.00720
   
 Atom       C6           C7           C8           C9           C10     
 Charge   -0.20569     -0.30199     -0.10958      0.11225     -0.11474
   
 Atom       C11          O12          Si13         C14          C15     
 Charge    0.03277     -0.32210     -0.04377      0.21248      0.23811
   
 Atom       C16          C17          C18          C19          C20     
 Charge    0.23314     -0.21423     -0.43533     -0.26184     -0.08478
   
 Atom       Si21         O22          C23          C24          P25     
 Charge    0.08648     -0.30743     -0.13937     -0.10795      0.99522
   
 Atom       O26          O27          C28          C29          C30     
 Charge   -0.56385     -0.72573      0.31660      0.18948      0.05920
   
 Atom       C31          C32          C33          C34          C35     
 Charge    0.11848     -0.00173      0.24845     -0.32373     -0.28371
   
 Atom       C36          C37          C38          C39          C40     
 Charge   -0.15814     -0.25936     -0.10463     -0.17361     -0.03850
   
 Atom       C41          C42          C43          C44          C45     
 Charge   -0.23324     -0.10954     -0.11856     -0.27297     -0.21506
   
 Atom       C46          C47          C48          C49          C50     
 Charge   -0.06263     -0.15829     -0.07547     -0.13268     -0.15758
   
 Atom       C51          C52          C53          C54          C55     
 Charge   -0.07325     -0.13372     -0.10691     -0.13997     -0.17914
   
 Atom       C56          C57          C58          C59          C60     
 Charge   -0.12320     -0.11457     -0.15191     -0.11977     -0.12237
   
 Atom       C61          C62          C63          C64          C65     
 Charge   -0.10263     -0.14788     -0.09717     -0.09651     -0.22375
   
 Atom       C66          C67          C68          C69          C70     
 Charge    0.20466     -0.09826     -0.05561     -0.16762      0.04865
   
 Atom       N71          S72          O73          O74          C75     
 Charge   -0.60914      0.73441     -0.47997     -0.39241      0.45726
   
 Atom       C76          C77          C78          C79          N80     
 Charge   -0.38608      0.12120     -0.36348      0.37879     -0.49319
   
 Atom       N81          C82          C83          C84          C85     
 Charge   -0.12503     -0.08037     -0.14133     -0.23764      0.09786
   
 Atom       H86          H87          H88          H89          H90     
 Charge    0.08599      0.13802      0.13436      0.14764      0.12570
   
 Atom       H91          H92          H93          H94          H95     
 Charge    0.12902      0.19274      0.15674      0.13316      0.12285
   
 Atom       H96          H97          H98          H99          H100    
 Charge    0.52042      0.16400      0.14866      0.10889      0.12674
   
 Atom       H101         H102         H103         H104         H105    
 Charge    0.11439      0.12266      0.11131      0.13209      0.12300
   
 Atom       H106         H107         H108         H109         H110    
 Charge    0.09130      0.15348      0.08339      0.09070      0.11608
   
 Atom       H111         H112         H113         H114         H115    
 Charge    0.11926      0.12601      0.12931      0.11612      0.09567
   
 Atom       H116         H117         H118         H119         H120    
 Charge    0.11221      0.12847      0.11695      0.12408      0.12242
   
 Atom       H121         H122         H123         H124         H125    
 Charge    0.12521      0.12355      0.12427      0.13190      0.12097
   
 Atom       H126         H127         H128         H129         H130    
 Charge    0.09625      0.13383      0.13439      0.06282      0.11307
   
 Atom       H131         H132         H133         H134         H135    
 Charge    0.13713      0.14511      0.19540      0.11777      0.17586
   
 Atom       H136         H137         H138         H139         H140    
 Charge    0.00136      0.31351      0.17531      0.14672      0.16599
   
 Atom       H141    
 Charge    0.10494
  
  sum of atomic charges:     0.000000
   
 RMS Error   8.86E-04 hartrees
 
  Peak memory usage:    583 Mb
  
  end of program ch
   
 Time(ch)  user:       18.0  user+sys:       19.0  wallclock:       23.0
  
  start of program post
  
  Writing input files for PBF
  Peak memory usage:    534 Mb
  
  end of program post
   
 Time(post)  user:        0.0  user+sys:        0.0  wallclock:        0.4

  start of program pbf

Pbf Version 4.00

Molecular surface area:      818.86740   [A2]
Reaction field energy:       -14.39851   [kT]
  Peak memory usage: 556 Mb

  end of program pbf

 Time(pbf)  user:       13.4  user+sys:       13.5  wallclock:       27.1
  
  start of program solv
  
   number of surface charges from PBF   13066
   sum of surface charges     -0.00035
   
  nuclear repulsion energy.......   17410.342910038 hartrees
  Peak memory usage:    694 Mb
  
  end of program solv
   
 Time(solv)  user:       34.0  user+sys:       34.0  wallclock:       70.7
  
  start of program scf
  
  
       i  u  d  i  g                   
       t  p  i  c  r                                 RMS    maximum
       e  d  i  u  i                       energy  density   DIIS  
       r  t  s  t  d       total energy    change  change    error 
  
etot    1  N  N  1  U   -4711.54868703841           1.3E-05  2.1E-04
etot    2  N  Y  1  U   -4711.54854133701 -1.5E-04  9.0E-06  5.6E-04
etot    3  N  Y  1  U   -4711.54871362305  1.7E-04  4.3E-07  1.4E-05
etot    4  N  N  1  U   -4711.54871374432  1.2E-07  0.0E+00  0.0E+00
  
  
 Energy components, in hartrees:
   (A)  Total zero-electron terms....   17412.55947814317
   (B)    Nuclear-nuclear............   17410.34291003763
   (C)    Nuclear-solvent............       2.21656810553
   (E)  Total one-electron terms.....  -41167.72264279634
   (F)    Electron-nuclear...........  -45839.89118268339
   (G)    Electron-solvent...........      -2.24712540862
   (H)    Kinetic....................    4674.41566529567
   (I)  Total two-electron terms.....   19043.61445090886
   (J)    Coulomb....................   19618.72979608658
   (K)    Exchange+Correlation.......    -575.11534517772
   (L)  Electronic energy............  -22124.10819188748  (E+I)
   (N)  Total quantum mech. energy...   -4711.54871374432  (A+L)
   (O)  Gas phase energy.............   -4711.51904286991
   (P)  Solution phase energy........   -4711.53343509277  (Q+R+S)
   (Q)    Total solute energy........   -4711.51815644123  (N-C-G)
   (R)    Total solvent energy.......      -0.01527865154  (C/2+G/2)
   (S)    Solute cavity energy.......       0.00000000000
   (U)  Reorganization energy........       0.00088642868  (Q-O)
   (V)  Solvation energy.............      -0.01439222286  (P-O)
  
 SCFE:  Solution phase energy: DFT(b3lyp)      -4711.53343509277 hartrees
        SCF iterations:   4
  
 
 HOMO energy:    -0.20417
 LUMO energy:    -0.08605
 
  Orbital energies (hartrees): 
   -89.11646   -77.21486   -66.11108   -66.10461   -19.17649   -19.17451
   -19.15473   -19.14871   -19.09811   -19.08603   -14.37502   -14.37177
   -14.35309   -10.28160   -10.26403   -10.25212   -10.25035   -10.23872
   -10.23808   -10.22560   -10.22536   -10.22202   -10.21654   -10.21312
   -10.20429   -10.20406   -10.20282   -10.20217   -10.20055   -10.19919
   -10.19868   -10.19866   -10.19768   -10.19692   -10.19610   -10.19432
   -10.19412   -10.19370   -10.19203   -10.19160   -10.19075   -10.18988
   -10.18852   -10.18806   -10.18758   -10.18731   -10.18729   -10.18728
   -10.18717   -10.18670   -10.18635   -10.18567   -10.18566   -10.18538
   -10.18495   -10.18461   -10.18448   -10.18394   -10.18303   -10.18273
   -10.18201   -10.18023   -10.17880   -10.17877   -10.17751   -10.17744
   -10.17644   -10.17620   -10.17588   -10.17564   -10.17562   -10.17536
   -10.17513   -10.17448   -10.17373   -10.17191   -10.17152   -10.17135
   -10.17122   -10.17046   -10.16860   -10.16566   -10.16054   -10.16053
   -10.15649    -8.14308    -6.65884    -6.10803    -6.10711    -6.10586
    -5.25779    -5.25143    -4.82386    -4.82237    -4.82030    -3.61675
    -3.61649    -3.61607    -3.61049    -3.61010    -3.60962    -1.11839
    -1.08485    -1.04320    -1.00705    -0.98541    -0.96970    -0.96771
    -0.94468    -0.92072    -0.87356    -0.86402    -0.85998    -0.84124
    -0.83802    -0.83680    -0.82958    -0.82893    -0.82459    -0.82247
    -0.81678    -0.80777    -0.79700    -0.78841    -0.78592    -0.77538
    -0.75445    -0.75374    -0.74702    -0.74165    -0.74044    -0.73809
    -0.73593    -0.73528    -0.73380    -0.73324    -0.73110    -0.73012
    -0.72904    -0.72729    -0.72520    -0.72509    -0.72329    -0.72007
    -0.70797    -0.70527    -0.66258    -0.65063    -0.64537    -0.62542
    -0.61978    -0.61415    -0.60914    -0.60772    -0.60391    -0.59829
    -0.59587    -0.59187    -0.59058    -0.58977    -0.58941    -0.58740
    -0.58503    -0.58355    -0.57937    -0.57908    -0.57848    -0.57543
    -0.57419    -0.57396    -0.57084    -0.56495    -0.56203    -0.55396
    -0.53881    -0.53182    -0.52858    -0.52277    -0.52172    -0.51804
    -0.50517    -0.50338    -0.50271    -0.49981    -0.49871    -0.49724
    -0.49597    -0.49423    -0.48874    -0.48392    -0.47279    -0.46965
    -0.46674    -0.46375    -0.46113    -0.46036    -0.45825    -0.45260
    -0.45033    -0.44701    -0.44639    -0.44465    -0.44268    -0.44238
    -0.44110    -0.43897    -0.43680    -0.43600    -0.43342    -0.43259
    -0.43220    -0.42942    -0.42822    -0.42708    -0.42654    -0.42623
    -0.42464    -0.42388    -0.42254    -0.42105    -0.41935    -0.41798
    -0.41708    -0.41665    -0.41461    -0.41326    -0.41237    -0.40709
    -0.40644    -0.40520    -0.40417    -0.40099    -0.39911    -0.39801
    -0.39462    -0.39339    -0.38838    -0.38270    -0.38160    -0.38030
    -0.37810    -0.37473    -0.37293    -0.37098    -0.36590    -0.36468
    -0.35812    -0.35765    -0.35655    -0.35384    -0.35353    -0.35216
    -0.34906    -0.34786    -0.34665    -0.34293    -0.34160    -0.33816
    -0.33631    -0.33544    -0.33481    -0.33190    -0.32962    -0.32848
    -0.32749    -0.32601    -0.32530    -0.32085    -0.31851    -0.31647
    -0.31384    -0.31156    -0.30922    -0.30504    -0.30182    -0.29959
    -0.29268    -0.29116    -0.28807    -0.28526    -0.28414    -0.28131
    -0.27976    -0.27821    -0.27288    -0.27241    -0.26865    -0.26406
    -0.25769    -0.25416    -0.25273    -0.24932    -0.24826    -0.24710
    -0.24671    -0.24532    -0.24467    -0.23703    -0.23646    -0.23466
    -0.23401    -0.23286    -0.23006    -0.22803    -0.22636    -0.22532
    -0.21923    -0.20417    -0.08605    -0.04847    -0.04759    -0.03382
    -0.02683    -0.01582    -0.01307    -0.00977    -0.00786    -0.00661
 
  Peak memory usage:    839 Mb
  
  end of program scf
   
 Time(scf)  user:     1999.0  user+sys:     2019.0  wallclock:     2193.7
  
  start of program sole
  
    SCRF                   solvation energy
  iteration          Hartrees            kcal/mol
     0               0.0000000            0.0000
     1              -0.0134165           -8.4190
     2              -0.0142059           -8.9143
     3              -0.0143922           -9.0313
  
  solvation energy not yet converged... 
  
  Peak memory usage:    634 Mb
  
  end of program sole
   
 Time(sole)  user:        0.0  user+sys:        0.0  wallclock:        0.2
  
  start of program ch
  
  gridpoints used for charge fit        16302
    out of a possible maximum of        16302
  
   Electrostatic potential fitting constrained to reproduce
     total charge:                yes
     dipole moment:               no 
     traceless quadrupole moment: no 
     traceless octapole moment:   no 
  
  Atomic charges from electrostatic potential: 
   
 Atom       C1           C2           C3           C4           C5      
 Charge   -0.09105     -0.01435     -0.16950      0.16775     -0.00723
   
 Atom       C6           C7           C8           C9           C10     
 Charge   -0.20561     -0.30225     -0.10986      0.11333     -0.11463
   
 Atom       C11          O12          Si13         C14          C15     
 Charge    0.03296     -0.32219     -0.04328      0.21238      0.23907
   
 Atom       C16          C17          C18          C19          C20     
 Charge    0.23270     -0.21395     -0.43511     -0.26164     -0.08413
   
 Atom       Si21         O22          C23          C24          P25     
 Charge    0.08690     -0.30797     -0.14020     -0.10881      0.99718
   
 Atom       O26          O27          C28          C29          C30     
 Charge   -0.56559     -0.72605      0.31793      0.19000      0.06004
   
 Atom       C31          C32          C33          C34          C35     
 Charge    0.11922     -0.00122      0.24990     -0.32387     -0.28295
   
 Atom       C36          C37          C38          C39          C40     
 Charge   -0.15803     -0.25906     -0.10452     -0.17379     -0.03786
   
 Atom       C41          C42          C43          C44          C45     
 Charge   -0.23321     -0.10941     -0.11810     -0.27331     -0.21491
   
 Atom       C46          C47          C48          C49          C50     
 Charge   -0.06241     -0.15896     -0.07623     -0.13271     -0.15799
   
 Atom       C51          C52          C53          C54          C55     
 Charge   -0.07338     -0.13336     -0.10761     -0.14008     -0.17868
   
 Atom       C56          C57          C58          C59          C60     
 Charge   -0.12409     -0.11537     -0.15198     -0.12019     -0.12273
   
 Atom       C61          C62          C63          C64          C65     
 Charge   -0.10261     -0.14896     -0.09685     -0.09796     -0.22363
   
 Atom       C66          C67          C68          C69          C70     
 Charge    0.20540     -0.09649     -0.05608     -0.16865      0.05155
   
 Atom       N71          S72          O73          O74          C75     
 Charge   -0.60724      0.73718     -0.48176     -0.39395      0.45874
   
 Atom       C76          C77          C78          C79          N80     
 Charge   -0.38649      0.11999     -0.36459      0.37906     -0.49197
   
 Atom       N81          C82          C83          C84          C85     
 Charge   -0.12461     -0.08359     -0.14269     -0.23884      0.09786
   
 Atom       H86          H87          H88          H89          H90     
 Charge    0.08580      0.13800      0.13426      0.14745      0.12564
   
 Atom       H91          H92          H93          H94          H95     
 Charge    0.12891      0.19250      0.15668      0.13326      0.12294
   
 Atom       H96          H97          H98          H99          H100    
 Charge    0.52080      0.16390      0.14845      0.10870      0.12661
   
 Atom       H101         H102         H103         H104         H105    
 Charge    0.11442      0.12263      0.11139      0.13196      0.12288
   
 Atom       H106         H107         H108         H109         H110    
 Charge    0.09110      0.15343      0.08331      0.09056      0.11603
   
 Atom       H111         H112         H113         H114         H115    
 Charge    0.11921      0.12587      0.12925      0.11598      0.09536
   
 Atom       H116         H117         H118         H119         H120    
 Charge    0.11217      0.12836      0.11680      0.12408      0.12244
   
 Atom       H121         H122         H123         H124         H125    
 Charge    0.12513      0.12351      0.12416      0.13178      0.12097
   
 Atom       H126         H127         H128         H129         H130    
 Charge    0.09586      0.13400      0.13410      0.06274      0.11305
   
 Atom       H131         H132         H133         H134         H135    
 Charge    0.13725      0.14451      0.19526      0.11780      0.17583
   
 Atom       H136         H137         H138         H139         H140    
 Charge    0.00110      0.31434      0.17585      0.14707      0.16629
   
 Atom       H141    
 Charge    0.10547
  
  sum of atomic charges:     0.000000
   
 RMS Error   8.85E-04 hartrees
 
  Peak memory usage:    583 Mb
  
  end of program ch
   
 Time(ch)  user:       16.0  user+sys:       16.0  wallclock:       17.3
  
  start of program post
  
  Writing input files for PBF
  Peak memory usage:    534 Mb
  
  end of program post
   
 Time(post)  user:        0.0  user+sys:        0.0  wallclock:        0.2

  start of program pbf

Pbf Version 4.00

Molecular surface area:      818.86740   [A2]
Reaction field energy:       -14.33209   [kT]
  Peak memory usage: 556 Mb

  end of program pbf

 Time(pbf)  user:       10.2  user+sys:       10.3  wallclock:       10.3
  
  start of program solv
  
   number of surface charges from PBF   13066
   sum of surface charges     -0.00034
   
  nuclear repulsion energy.......   17410.342910038 hartrees
  Peak memory usage:    694 Mb
  
  end of program solv
   
 Time(solv)  user:       31.0  user+sys:       31.0  wallclock:       31.6
  
  start of program scf
  
  
       i  u  d  i  g                   
       t  p  i  c  r                                 RMS    maximum
       e  d  i  u  i                       energy  density   DIIS  
       r  t  s  t  d       total energy    change  change    error 
  
etot    1  N  N  1  U   -4711.54864993078           7.8E-07  1.3E-05
etot    2  N  N  1  U   -4711.54864989770 -3.3E-08  0.0E+00  0.0E+00
  
  
 Energy components, in hartrees:
   (A)  Total zero-electron terms....   17412.53477067520
   (B)    Nuclear-nuclear............   17410.34291003763
   (C)    Nuclear-solvent............       2.19186063756
   (E)  Total one-electron terms.....  -41167.66407172749
   (F)    Electron-nuclear...........  -45839.85756579115
   (G)    Electron-solvent...........      -2.22233761528
   (H)    Kinetic....................    4674.41583167893
   (I)  Total two-electron terms.....   19043.58065115460
   (J)    Coulomb....................   19618.69604535726
   (K)    Exchange+Correlation.......    -575.11539420266
   (L)  Electronic energy............  -22124.08342057290  (E+I)
   (N)  Total quantum mech. energy...   -4711.54864989770  (A+L)
   (O)  Gas phase energy.............   -4711.51904286991
   (P)  Solution phase energy........   -4711.53341140884  (Q+R+S)
   (Q)    Total solute energy........   -4711.51817291998  (N-C-G)
   (R)    Total solvent energy.......      -0.01523848886  (C/2+G/2)
   (S)    Solute cavity energy.......       0.00000000000
   (U)  Reorganization energy........       0.00086994992  (Q-O)
   (V)  Solvation energy.............      -0.01436853893  (P-O)
  
 SCFE:  Solution phase energy: DFT(b3lyp)      -4711.53341140884 hartrees
        SCF iterations:   2
  
 
 HOMO energy:    -0.20416
 LUMO energy:    -0.08612
 
  Orbital energies (hartrees): 
   -89.11667   -77.21485   -66.11123   -66.10462   -19.17661   -19.17436
   -19.15495   -19.14830   -19.09812   -19.08603   -14.37502   -14.37202
   -14.35290   -10.28190   -10.26420   -10.25219   -10.25026   -10.23866
   -10.23795   -10.22575   -10.22537   -10.22219   -10.21647   -10.21337
   -10.20415   -10.20414   -10.20280   -10.20223   -10.20043   -10.19905
   -10.19867   -10.19857   -10.19779   -10.19680   -10.19610   -10.19425
   -10.19416   -10.19394   -10.19186   -10.19160   -10.19063   -10.18970
   -10.18870   -10.18795   -10.18750   -10.18737   -10.18736   -10.18721
   -10.18717   -10.18662   -10.18637   -10.18563   -10.18560   -10.18532
   -10.18485   -10.18465   -10.18447   -10.18404   -10.18297   -10.18282
   -10.18198   -10.18032   -10.17878   -10.17874   -10.17750   -10.17747
   -10.17650   -10.17608   -10.17576   -10.17568   -10.17560   -10.17542
   -10.17539   -10.17441   -10.17373   -10.17190   -10.17153   -10.17141
   -10.17133   -10.17047   -10.16881   -10.16579   -10.16066   -10.16050
   -10.15651    -8.14327    -6.65883    -6.10822    -6.10730    -6.10604
    -5.25794    -5.25144    -4.82386    -4.82236    -4.82030    -3.61690
    -3.61664    -3.61623    -3.61050    -3.61011    -3.60963    -1.11845
    -1.08485    -1.04318    -1.00706    -0.98542    -0.96969    -0.96771
    -0.94484    -0.92075    -0.87354    -0.86408    -0.85998    -0.84126
    -0.83804    -0.83680    -0.82960    -0.82890    -0.82458    -0.82249
    -0.81673    -0.80777    -0.79705    -0.78842    -0.78592    -0.77544
    -0.75443    -0.75378    -0.74705    -0.74164    -0.74046    -0.73811
    -0.73593    -0.73529    -0.73383    -0.73325    -0.73108    -0.73011
    -0.72906    -0.72728    -0.72522    -0.72508    -0.72327    -0.72006
    -0.70804    -0.70527    -0.66266    -0.65065    -0.64536    -0.62548
    -0.61981    -0.61411    -0.60914    -0.60777    -0.60392    -0.59831
    -0.59591    -0.59188    -0.59059    -0.58978    -0.58940    -0.58743
    -0.58505    -0.58354    -0.57940    -0.57907    -0.57849    -0.57544
    -0.57418    -0.57396    -0.57083    -0.56497    -0.56206    -0.55398
    -0.53880    -0.53187    -0.52861    -0.52282    -0.52172    -0.51802
    -0.50518    -0.50338    -0.50270    -0.49981    -0.49871    -0.49724
    -0.49601    -0.49422    -0.48877    -0.48392    -0.47284    -0.46966
    -0.46677    -0.46374    -0.46116    -0.46035    -0.45829    -0.45262
    -0.45034    -0.44702    -0.44641    -0.44466    -0.44267    -0.44239
    -0.44111    -0.43897    -0.43680    -0.43602    -0.43342    -0.43261
    -0.43223    -0.42943    -0.42824    -0.42705    -0.42653    -0.42623
    -0.42466    -0.42388    -0.42253    -0.42104    -0.41938    -0.41800
    -0.41709    -0.41664    -0.41461    -0.41327    -0.41237    -0.40710
    -0.40644    -0.40522    -0.40420    -0.40098    -0.39908    -0.39803
    -0.39463    -0.39340    -0.38840    -0.38272    -0.38158    -0.38030
    -0.37809    -0.37474    -0.37296    -0.37097    -0.36593    -0.36470
    -0.35812    -0.35767    -0.35657    -0.35386    -0.35356    -0.35216
    -0.34907    -0.34789    -0.34666    -0.34293    -0.34160    -0.33816
    -0.33630    -0.33544    -0.33481    -0.33192    -0.32961    -0.32857
    -0.32747    -0.32601    -0.32529    -0.32084    -0.31851    -0.31644
    -0.31384    -0.31156    -0.30921    -0.30505    -0.30182    -0.29964
    -0.29269    -0.29119    -0.28813    -0.28532    -0.28414    -0.28132
    -0.27976    -0.27821    -0.27289    -0.27239    -0.26864    -0.26406
    -0.25773    -0.25418    -0.25273    -0.24934    -0.24829    -0.24710
    -0.24675    -0.24534    -0.24467    -0.23702    -0.23647    -0.23464
    -0.23404    -0.23289    -0.23004    -0.22806    -0.22637    -0.22532
    -0.21921    -0.20416    -0.08612    -0.04849    -0.04759    -0.03385
    -0.02682    -0.01583    -0.01310    -0.00980    -0.00786    -0.00666
 
  Peak memory usage:    839 Mb
  
  end of program scf
   
 Time(scf)  user:      565.0  user+sys:      570.0  wallclock:      573.9
  
  start of program sole
  
    SCRF                   solvation energy
  iteration          Hartrees            kcal/mol
     0               0.0000000            0.0000
     1              -0.0134165           -8.4190
     2              -0.0142059           -8.9143
     3              -0.0143922           -9.0313
     4              -0.0143685           -9.0164
  
  stopping: solvation energy converged
  
  iterations:   4    sfinal:     -9.0164 kcal/mol
  
  Peak memory usage:    634 Mb
  
  end of program sole
   
 Time(sole)  user:        0.0  user+sys:        0.0  wallclock:        0.2
  
  start of program post
  
  Writing input files for PBF
  Peak memory usage:    534 Mb
  
  end of program post
   
 Time(post)  user:        0.0  user+sys:        0.0  wallclock:        0.2

 Total cpu seconds     user:   17588.000   user+sys:   17771.000
  
 Total elapsed time:    27206 seconds

Job B3LYP-SPE-Toru-SiPh3-Type-I-E-11-chkp-unrestrained completed on tethys at Mon Nov 28 18:55:01 2016
