Job ModelCatalyst-8BindtoN-5-TS-fine-grid-uf-acc-sol_1 started on tethys at Wed Jan 25 10:54:36 2017
jobid: tethys-0-588883eb

  +--------------------------------------------------------------------+
  |  Jaguar version 8.4, release  16                                   |
  |                                                                    |
  |  Copyright Schrodinger, Inc.                                       |
  |  All Rights Reserved.                                              |
  |                                                                    |
  |  The following have contributed to Jaguar (listed alphabetically): |
  |  Mike Beachy, Art Bochevarov, Dale Braden, Yixiang Cao,            |
  |  Chris Cortis, Rich Friesner, Bill Goddard, Hod Greeley,           |
  |  Tom Hughes, Jean-Marc Langlois, Daniel Mainz, Rob Murphy,         |
  |  Dean Philipp, Tom Pollard, Murco Ringnalda.                       |
  |                                                                    |
  |  Use of this program should be acknowledged in publications as:    |
  |                                                                    |
  |  Jaguar, version 8.4, Schrodinger, Inc., New York, NY, 2013.       |
  |                                                                    |
  |  A. D. Bochevarov, E. Harder, T. F. Hughes, J. R. Greenwood,       |
  |  D. A. Braden, D. M. Philipp, D. Rinaldo, M. D. Halls,             |
  |  J. Zhang, R. A. Friesner, "Jaguar: A High-Performance Quantum     |
  |  Chemistry Software Program with Strengths in Life and Materials   |
  |  Sciences", Int. J. Quantum Chem., 2013, 113(18), 2110-2142.       |
  +--------------------------------------------------------------------+
  
  start of program pre
  
  Job name: ModelCatalyst-8BindtoN-5-TS-fine-grid-uf-acc-sol_1
  Executables used: /usr/local/shared/schrodinger/current/jaguar-v84016/bin/Linux-x86_64
  Temporary files : /home/ab2144/.schrodinger/tmp/ModelCatalyst-8BindtoN-5-TS-fine-grid-uf-acc-sol_1
  Maestro file (input):  ModelCatalyst-8BindtoN-5-TS-fine-grid-uf-acc-sol_1.mae
  Maestro file (output): ModelCatalyst-8BindtoN-5-TS-fine-grid-uf-acc-sol_1.01.mae
  
  
  basis set:             6-31g**         
  net molecular charge:    0
  multiplicity:            1
  
  keygrid settings 
    wispc.....   7.500E-01
    ldens.....   0
    denspc....   7.500E-01
  
   grid     daf set  nls  grid set  Q type
  ------    -------  ---  --------  ------
  coarse       1      1       1        1
  medium       2      2       2        1
  fine         3      2       3        0
  ultrafine    4      2       4        1
  charge       0      1      -1        1
  gradient     5      2       4        1
  density      0      1       0        0
  DFT-fine     0      1     -13        0
  DFT-med.     0      1     -13        0
  DFT-grad     0      1     -13        0
  DFT-der2     0      1       0        0
  DFT-cphf     0      1       0        0
  LMP2-enrg    4      2       4        1
  LMP2-grad    5      2       2        1
  DFT-cphf2    0      1       0        0
  PBF-dens     0      1       0        0
  plotting     0      1       0        0
  
  idftgrdm  100
  ndftgrdm   50    0    0
  idftgrdf  111
  ndftgrdf   85    0    0
  idftgrdg  111
  ndftgrdg   80    3    0
  idftgrdu  433
  ndftgrdu  105    0    0
  idftgrdd  433
  ndftgrdd  105    0    0
  idftgrdc  433
  ndftgrdc   26    0    0
  idftgrdp  433
  ndftgrdp   18    0    0
  
  number of basis functions....          682
  
 Input geometry:
                                   angstroms
  atom               x                 y                 z
  C1           -2.7022000000     -2.6115000000      2.5960000000 
  C2           -4.0298000000     -2.4234000000      2.4603000000 
  C3           -4.3279000000     -1.2106000000      1.6858000000 
  C4           -3.7017000000     -0.1428000000      2.2020000000 
  H5           -4.7149000000     -3.2096000000      2.7632000000 
  H6           -2.2618000000     -3.4999000000      3.0386000000 
  H7           -3.5601000000     -0.0115000000      3.2731000000 
  H8           -4.4673000000     -1.2979000000      0.6115000000 
  O9           -1.6819000000     -1.7775000000      2.1576000000 
  P10          -1.4077000000     -0.3489000000      1.3704000000 
  O11          -2.7832000000      0.5852000000      1.4314000000 
  O12          -0.3102000000      0.3542000000      2.1096000000 
  N13          -0.9879000000     -0.6330000000     -0.1756000000 
  S14          -1.7150000000     -1.5908000000     -1.2530000000 
  O15          -0.7074000000     -2.0459000000     -2.2143000000 
  O16          -2.6565000000     -2.5598000000     -0.6738000000 
  C17          -2.7971000000     -0.4110000000     -2.2237000000 
  F18          -3.3768000000     -1.0666000000     -3.2314000000 
  F19          -3.7550000000      0.1018000000     -1.4326000000 
  F20          -2.0749000000      0.6004000000     -2.7210000000 
  H21           0.7021000000      0.1205000000     -0.7896000000 
  C22           2.8180000000      0.3006000000     -0.6446000000 
  N23           1.5493000000      0.6847000000     -0.9931000000 
  S24           1.2423000000      2.2501000000     -1.6205000000 
  O25           2.5450000000      2.9161000000     -1.6544000000 
  O26           0.4211000000      2.0965000000     -2.8153000000 
  C27          -1.2775000000      4.1170000000      1.6154000000 
  C28           0.0961000000      3.8963000000      1.7411000000 
  N29           0.8335000000      3.3441000000      0.7731000000 
  C30           0.1977000000      2.9977000000     -0.3402000000 
  C31          -1.1631000000      3.1522000000     -0.5823000000 
  C32          -1.9164000000      3.7332000000      0.4395000000 
  H33          -1.8307000000      4.5672000000      2.4326000000 
  H34           0.6236000000      4.1697000000      2.6511000000 
  H35          -1.6024000000      2.8126000000     -1.5113000000 
  H36          -2.9854000000      3.8715000000      0.3173000000 
  C37           3.9618000000     -3.8193000000     -0.8384000000 
  C38           2.6202000000     -3.4930000000     -0.6405000000 
  C39           2.2235000000     -2.1597000000     -0.5481000000 
  C40           3.1750000000     -1.1338000000     -0.6603000000 
  C41           4.5259000000     -1.4733000000     -0.8530000000 
  C42           4.9167000000     -2.8045000000     -0.9471000000 
  H43           4.2634000000     -4.8596000000     -0.9170000000 
  H44           1.8699000000     -4.2743000000     -0.5745000000 
  H45           1.1709000000     -1.9317000000     -0.4342000000 
  H46           5.2685000000     -0.6855000000     -0.9436000000 
  H47           5.9611000000     -3.0505000000     -1.1121000000 
  H48           3.5673000000      0.9687000000     -1.0566000000 
  C49           3.1276000000     -0.7202000000      2.7212000000 
  C50           4.4872000000     -0.4117000000      2.4746000000 
  C51           4.4958000000      0.6710000000      1.6148000000 
  C52           3.1430000000      0.9758000000      1.2657000000 
  H53           2.7037000000     -1.5062000000      3.3318000000 
  H54           5.3352000000     -0.9416000000      2.8840000000 
  H55           5.3627000000      1.1802000000      1.2152000000 
  H56           2.7609000000      1.9692000000      1.0533000000 
  N57           2.3504000000      0.1311000000      2.0555000000 
  H58           1.3023000000      0.1613000000      2.0788000000 
   
  principal moments of inertia:
        amu*angstrom^2:     4322.85351     6003.18350     6724.64757
                g*cm^2: 7.17826624E-37 9.96851949E-37 1.11665386E-36
   
  rotational constants:
               cm^(-1):      0.00389965      0.00280811      0.00250684
                   GHz:      0.11690866      0.08418517      0.07515323
   
  Molecular weight:     592.05 amu
   
  Stoichiometry: C21PN4H20S2O7F3
  Molecular Point Group: C1      
  Point Group used: C1
  
  nuclear repulsion energy.......    5703.138438992 hartrees
 
 Non-default options chosen:
   SCF calculation type: DFT(m06-2x)                 
   DFT=M06-2X
   Solvation energy will be computed using PBF
     -solute cavity energy will not be included
     -surface area terms will not be included
   Highest accuracy cutoffs used in SCF
   Solvent: other                                                           
   Internal dielectric constant:    1.000
   Continuum dielectric constant:   2.380
   Solvent probe molecule radius:   2.760
  
 Temporary integer options set:
     73=  2
  
   Fixing number of canonical orbitals to remain constant.
   Number of canonical orbitals to use:   681
  
  atom       vdw   vdw2    cov     mass  grid  daf  charge   basis
  C1        1.949  1.900  0.770   12.000    Y    Y      Y    6-31g**
  C2        1.949  1.900  0.770   12.000    Y    Y      Y    6-31g**
  C3        1.949  1.900  0.770   12.000    Y    Y      Y    6-31g**
  C4        1.949  1.900  0.770   12.000    Y    Y      Y    6-31g**
  H5        1.597  1.150  0.320    1.008    Y    Y      Y    6-31g**
  H6        1.597  1.150  0.320    1.008    Y    Y      Y    6-31g**
  H7        1.597  1.150  0.320    1.008    Y    Y      Y    6-31g**
  H8        1.597  1.150  0.320    1.008    Y    Y      Y    6-31g**
  O9        1.702  1.600  0.730   15.995    Y    Y      Y    6-31g**
  P10       2.147  2.074  1.060   30.974    Y    Y      Y    6-31g**
  O11       1.702  1.600  0.730   15.995    Y    Y      Y    6-31g**
  O12       1.702  1.600  0.730   15.995    Y    Y      Y    6-31g**
  N13       1.831  1.600  0.750   14.003    Y    Y      Y    6-31g**
  S14       2.070  1.900  1.020   31.972    Y    Y      Y    6-31g**
  O15       1.702  1.600  0.730   15.995    Y    Y      Y    6-31g**
  O16       1.702  1.600  0.730   15.995    Y    Y      Y    6-31g**
  C17       1.949  1.900  0.770   12.000    Y    Y      Y    6-31g**
  F18       1.736  1.682  0.720   18.998    Y    Y      Y    6-31g**
  F19       1.736  1.682  0.720   18.998    Y    Y      Y    6-31g**
  F20       1.736  1.682  0.720   18.998    Y    Y      Y    6-31g**
  H21       1.597  1.150  0.320    1.008    Y    Y      Y    6-31g**
  C22       1.949  1.900  0.770   12.000    Y    Y      Y    6-31g**
  N23       1.831  1.600  0.750   14.003    Y    Y      Y    6-31g**
  S24       2.070  1.900  1.020   31.972    Y    Y      Y    6-31g**
  O25       1.702  1.600  0.730   15.995    Y    Y      Y    6-31g**
  O26       1.702  1.600  0.730   15.995    Y    Y      Y    6-31g**
  C27       1.949  1.900  0.770   12.000    Y    Y      Y    6-31g**
  C28       1.949  1.900  0.770   12.000    Y    Y      Y    6-31g**
  N29       1.831  1.600  0.750   14.003    Y    Y      Y    6-31g**
  C30       1.949  1.900  0.770   12.000    Y    Y      Y    6-31g**
  C31       1.949  1.900  0.770   12.000    Y    Y      Y    6-31g**
  C32       1.949  1.900  0.770   12.000    Y    Y      Y    6-31g**
  H33       1.597  1.150  0.320    1.008    Y    Y      Y    6-31g**
  H34       1.597  1.150  0.320    1.008    Y    Y      Y    6-31g**
  H35       1.597  1.150  0.320    1.008    Y    Y      Y    6-31g**
  H36       1.597  1.150  0.320    1.008    Y    Y      Y    6-31g**
  C37       1.949  1.900  0.770   12.000    Y    Y      Y    6-31g**
  C38       1.949  1.900  0.770   12.000    Y    Y      Y    6-31g**
  C39       1.949  1.900  0.770   12.000    Y    Y      Y    6-31g**
  C40       1.949  1.900  0.770   12.000    Y    Y      Y    6-31g**
  C41       1.949  1.900  0.770   12.000    Y    Y      Y    6-31g**
  C42       1.949  1.900  0.770   12.000    Y    Y      Y    6-31g**
  H43       1.597  1.150  0.320    1.008    Y    Y      Y    6-31g**
  H44       1.597  1.150  0.320    1.008    Y    Y      Y    6-31g**
  H45       1.597  1.150  0.320    1.008    Y    Y      Y    6-31g**
  H46       1.597  1.150  0.320    1.008    Y    Y      Y    6-31g**
  H47       1.597  1.150  0.320    1.008    Y    Y      Y    6-31g**
  H48       1.597  1.150  0.320    1.008    Y    Y      Y    6-31g**
  C49       1.949  1.900  0.770   12.000    Y    Y      Y    6-31g**
  C50       1.949  1.900  0.770   12.000    Y    Y      Y    6-31g**
  C51       1.949  1.900  0.770   12.000    Y    Y      Y    6-31g**
  C52       1.949  1.900  0.770   12.000    Y    Y      Y    6-31g**
  H53       1.597  1.150  0.320    1.008    Y    Y      Y    6-31g**
  H54       1.597  1.150  0.320    1.008    Y    Y      Y    6-31g**
  H55       1.597  1.150  0.320    1.008    Y    Y      Y    6-31g**
  H56       1.597  1.150  0.320    1.008    Y    Y      Y    6-31g**
  N57       1.831  1.600  0.750   14.003    Y    Y      Y    6-31g**
  H58       1.597  1.150  0.320    1.008    Y    Y      Y    6-31g**
  
  Peak memory usage:    514 Mb
  
  end of program pre
   
 Time(pre)  user:        0.0  user+sys:        0.0  wallclock:        0.5
  
  start of program onee
  
  smallest eigenvalue of S:    4.326E-04
  Set cut 20/10 to   6.053877929229669E-004
  number of canonical orbitals.....          681
  Peak memory usage:    658 Mb
  
  end of program onee
   
 Time(onee)  user:        1.0  user+sys:        1.0  wallclock:        4.6
  
  start of program hfig
  
  initial wavefunction generated automatically from atomic wavefunctions
 
  Irreducible     Total no   No of occupied orbitals 
  representation  orbitals   Shell_1  Shell_2    ...
  No Symm          681        152
  ------------------------
  Orbital occupation/shell    1.000
 
  Peak memory usage:    599 Mb
  
  end of program hfig
   
 Time(hfig)  user:        1.0  user+sys:        1.0  wallclock:        3.5
  
  start of program probe
  
  Peak memory usage:    599 Mb
  
  end of program probe
   
 Time(probe)  user:        1.0  user+sys:        1.0  wallclock:        3.0
  
  start of program grid
  
  
   grid     grid set  grid #  grid sym
  ------    --------  ------  --------
  coarse        0        0        1
  medium        2        1        1
  fine          0        0        1
  ultrafine     4        2        1
  charge       -1        3        1
  gradient      4        2        1
  density       0        0        1
  DFT-fine    -13        4        1
  DFT-med.    -13        4        1
  DFT-grad    -13        4        1
  DFT-der2      0        0        1
  DFT-cphf      0        0        1
  LMP2-enrg     4        2        1
  LMP2-grad     2        1        1
  DFT-cphf2     0        0        1
  PBF-dens      0        0        1
  plotting      0        0        1
  
   
  number of gridpoints: 
     atom        C1       C2       C3       C4       H5       H6       H7
  grid # 1       92       94       95       94      118      117      115
  grid # 2      328      337      339      333      455      454      444
  grid # 3       16       14       44       38      457      431      367
  grid # 4    48350    48350    48350    48350    48788    48788    48788
   
  number of gridpoints: 
     atom        H8       O9      P10      O11      O12      N13      S14
  grid # 1      110      111      450      113      118      110      442
  grid # 2      432      444      450      451      463      393      442
  grid # 3      226       87        6       75      111       14       11
  grid # 4    48788    47970    38334    47970    47970    48272    48562
   
  number of gridpoints: 
     atom       O15      O16      C17      F18      F19      F20      H21
  grid # 1      122      121       90      537      524      521      100
  grid # 2      496      490      320      537      524      521      398
  grid # 3      228      200        7      328      177      149       59
  grid # 4    47970    47970    48350    47470    47470    47470    48788
   
  number of gridpoints: 
     atom       C22      N23      S24      O25      O26      C27      C28
  grid # 1       90      100      442      123      122       96       96
  grid # 2      321      351      442      497      496      330      338
  grid # 3        6       21       16      266      247       35       33
  grid # 4    48350    48272    48562    47970    47970    48350    48350
   
  number of gridpoints: 
     atom       N29      C30      C31      C32      H33      H34      H35
  grid # 1      110       98       96       96      117      117      110
  grid # 2      408      357      328      330      451      452      430
  grid # 3       65       31       31       30      410      419      214
  grid # 4    48272    48350    48350    48350    48788    48788    48788
   
  number of gridpoints: 
     atom       H36      C37      C38      C39      C40      C41      C42
  grid # 1      117       97       96       96      100       96       96
  grid # 2      452      333      334      333      359      336      333
  grid # 3      385       46       43       30       31       35       42
  grid # 4    48788    48350    48350    48350    48350    48350    48350
   
  number of gridpoints: 
     atom       H43      H44      H45      H46      H47      H48      C49
  grid # 1      118      118      106      113      118      106       95
  grid # 2      451      445      411      435      450      412      331
  grid # 3      420      379      102      262      410      157       32
  grid # 4    48788    48788    48788    48788    48788    48788    48350
   
  number of gridpoints: 
     atom       C50      C51      C52      H53      H54      H55      H56
  grid # 1       94       94       91      117      117      116      108
  grid # 2      331      329      322      457      460      449      420
  grid # 3       31       30        7      417      442      373      153
  grid # 4    48350    48350    48350    48788    48788    48788    48788
   
  number of gridpoints: 
     atom       N57      H58    total
  grid # 1       97      100     8413
  grid # 2      345      406    23516
  grid # 3       24      121     8841
  grid # 4    48272    48788  2797856
   
  Peak memory usage:    632 Mb
  
  end of program grid
   
 Time(grid)  user:      119.0  user+sys:      120.0  wallclock:      259.0
  
  start of program rwr
  
  dpptrf failed in rinv with info = 177
  switching to SVD for RwR matrix  29 for grid  2
  Peak memory usage:    533 Mb
  
  end of program rwr
   
 Time(rwr)  user:       13.0  user+sys:       13.0  wallclock:       31.9
  
  start of program scf
  
 number of electrons..........        304
 number of alpha electrons....        152
 number of beta electrons.....        152
 number of orbitals, total....        681
 number of doubly-occ'd orbs..        152
 number of open shell orbs....          0
 number of occupied orbitals..        152
 number of virtual orbitals...        529
 number of hamiltonians.......          1
 number of shells.............          1
 SCF type: DFT=M06-2X
  
       i  u  d  i  g                   
       t  p  i  c  r                                 RMS    maximum
       e  d  i  u  i                       energy  density   DIIS  
       r  t  s  t  d       total energy    change  change    error 
  
etot    1  N  N  1  U   -2987.76945005845           5.1E-03  1.3E-01
etot    2  N  Y  1  U   -2990.36173348424  2.6E+00  4.5E-03  1.5E-01
etot    3  N  Y  1  U   -2991.80315748419  1.4E+00  3.0E-03  1.2E-01
etot    4  N  Y  1  U   -2993.96023141706  2.2E+00  9.0E-04  2.0E-02
etot    5  N  Y  1  U   -2994.04608649697  8.6E-02  4.5E-04  1.6E-02
etot    6  N  Y  1  U   -2994.10182780895  5.6E-02  1.4E-04  4.7E-03
etot    7  N  Y  1  U   -2994.10612920630  4.3E-03  4.1E-05  1.5E-03
etot    8  N  Y  1  U   -2994.10662955745  5.0E-04  1.4E-05  3.1E-04
etot    9  N  N  1  U   -2994.10666251539  3.3E-05  0.0E+00  0.0E+00
  
  
 Energy components, in hartrees:
   (A)  Nuclear repulsion............    5703.13843899227
   (E)  Total one-electron terms.....  -15475.78529615979
   (F)    Electron-nuclear...........  -18450.18651912049
   (H)    Kinetic....................    2974.40122296070
   (I)  Total two-electron terms.....    6778.54019465213
   (J)    Coulomb....................    7093.11579661636
   (K)    Exchange+Correlation.......    -314.57560196423
   (L)  Electronic energy............   -8697.24510150766  (E+I)
   (M)  -V/T.........................       2.00662501057  (-(A+F+I)/H)
   (N)  Total energy.................   -2994.10666251539  (A+L)
  
 SCFE: SCF energy: DFT(m06-2x)     -2994.10666251539 hartrees   iterations:   9
  
 
 HOMO energy:    -0.28420
 LUMO energy:    -0.07260
 
  Orbital energies (hartrees): 
   -90.17632   -90.15143   -78.22072   -25.29150   -25.28988   -25.28813
   -19.68779   -19.68301   -19.65868   -19.65331   -19.62570   -19.62533
   -19.61374   -14.83272   -14.82305   -14.80031   -14.75413   -10.80500
   -10.66918   -10.63906   -10.62857   -10.62851   -10.61466   -10.60908
   -10.60811   -10.59481   -10.59149   -10.58743   -10.58704   -10.58653
   -10.57803   -10.57730   -10.57168   -10.56987   -10.56960   -10.56527
   -10.55975   -10.54882    -8.48663    -8.46048    -6.99865    -6.40900
    -6.40787    -6.40701    -6.38238    -6.38188    -6.38173    -5.11740
    -5.11618    -5.11436    -1.45600    -1.36537    -1.36471    -1.25061
    -1.22095    -1.20846    -1.16593    -1.13868    -1.12227    -1.10537
    -1.09566    -1.08972    -1.07040    -0.98449    -0.97725    -0.93019
    -0.91682    -0.90806    -0.90333    -0.88445    -0.85836    -0.85166
    -0.82981    -0.82037    -0.80969    -0.76742    -0.76415    -0.74461
    -0.72679    -0.71970    -0.70008    -0.69971    -0.69116    -0.68225
    -0.68107    -0.68104    -0.67404    -0.66114    -0.65834    -0.65240
    -0.62452    -0.62026    -0.60995    -0.59235    -0.58655    -0.58001
    -0.57679    -0.57180    -0.57044    -0.55992    -0.55663    -0.54888
    -0.54698    -0.54384    -0.54075    -0.53568    -0.52895    -0.52765
    -0.52382    -0.52175    -0.51834    -0.51770    -0.51471    -0.50943
    -0.50560    -0.50255    -0.50049    -0.49935    -0.49767    -0.48966
    -0.48430    -0.48040    -0.46776    -0.46659    -0.46086    -0.45237
    -0.43509    -0.43254    -0.43134    -0.42406    -0.41821    -0.41662
    -0.40826    -0.40525    -0.40035    -0.39655    -0.39105    -0.38730
    -0.37939    -0.37252    -0.36766    -0.35635    -0.35506    -0.34986
    -0.34611    -0.34209    -0.33239    -0.32204    -0.31657    -0.30747
    -0.29662    -0.28420    -0.07260    -0.02619    -0.00620     0.00345
     0.01764     0.01893     0.06555     0.06923     0.08388     0.09829
 
  Peak memory usage:    748 Mb
  
  end of program scf
   
 Time(scf)  user:     4160.0  user+sys:     4184.0  wallclock:     9098.5
  
  start of program ch
  
  gridpoints used for charge fit         7876
    out of a possible maximum of         8841
  
   Electrostatic potential fitting constrained to reproduce
     total charge:                yes
     dipole moment:               no 
     traceless quadrupole moment: no 
     traceless octapole moment:   no 
  
  Atomic charges from electrostatic potential: 
   
 Atom       C1           C2           C3           C4           H5      
 Charge   -0.00316     -0.21699     -0.16129     -0.04478      0.16385
   
 Atom       H6           H7           H8           O9           P10     
 Charge    0.14902      0.16048      0.17945     -0.25388      0.84262
   
 Atom       O11          O12          N13          S14          O15     
 Charge   -0.25606     -0.58799     -0.51742      0.70715     -0.44374
   
 Atom       O16          C17          F18          F19          F20     
 Charge   -0.42044      0.30684     -0.10800     -0.11913     -0.07587
   
 Atom       H21          C22          N23          S24          O25     
 Charge    0.05643     -0.37480     -0.04848      0.76687     -0.45312
   
 Atom       O26          C27          C28          N29          C30     
 Charge   -0.44416     -0.36423      0.30392     -0.49089      0.43630
   
 Atom       C31          C32          H33          H34          H35     
 Charge   -0.37955      0.13662      0.18185      0.07410      0.18486
   
 Atom       H36          C37          C38          C39          C40     
 Charge    0.12307     -0.11839     -0.08678     -0.28245      0.37966
   
 Atom       C41          C42          H43          H44          H45     
 Charge   -0.21891     -0.13011      0.13180      0.13843      0.24478
   
 Atom       H46          H47          H48          C49          C50     
 Charge    0.13341      0.14062      0.23918     -0.11723     -0.13213
   
 Atom       C51          C52          H53          H54          H55     
 Charge   -0.29596      0.27853      0.18802      0.15696      0.19062
   
 Atom       H56          N57          H58     
 Charge   -0.00434     -0.10506      0.25989
  
  sum of atomic charges:     0.000000
   
 RMS Error   1.12E-03 hartrees
 
  Peak memory usage:    551 Mb
  
  end of program ch
   
 Time(ch)  user:        3.0  user+sys:        3.0  wallclock:        6.5
  
  start of program post
  
  Writing input files for PBF
  Peak memory usage:    524 Mb
  
  end of program post
   
 Time(post)  user:        0.0  user+sys:        0.0  wallclock:        0.4

  start of program pbf

Pbf Version 4.00

Molecular surface area:      408.14341   [A2]
Reaction field energy:       -16.91075   [kT]
  Peak memory usage: 513 Mb

  end of program pbf

 Time(pbf)  user:        1.9  user+sys:        1.9  wallclock:        4.2
  
  start of program solv
  
   number of surface charges from PBF    5958
   sum of surface charges     -0.00021
   
  nuclear repulsion energy.......    5703.138438992 hartrees
  Peak memory usage:    652 Mb
  
  end of program solv
   
 Time(solv)  user:        6.0  user+sys:        6.0  wallclock:       13.4
  
  start of program scf
  
  
       i  u  d  i  g                   
       t  p  i  c  r                                 RMS    maximum
       e  d  i  u  i                       energy  density   DIIS  
       r  t  s  t  d       total energy    change  change    error 
  
etot    1  N  N  1  U   -2994.14070300066           1.3E-04  1.3E-03
etot    2  N  Y  1  U   -2994.14159582438  8.9E-04  4.2E-05  1.2E-03
etot    3  N  Y  1  U   -2994.14188566932  2.9E-04  1.4E-05  5.0E-04
etot    4  N  Y  1  U   -2994.14194003544  5.4E-05  5.8E-06  1.4E-04
etot    5  N  N  1  U   -2994.14194586115  5.8E-06  0.0E+00  0.0E+00
  
  
 Energy components, in hartrees:
   (A)  Total zero-electron terms....    5704.64685865153
   (B)    Nuclear-nuclear............    5703.13843899227
   (C)    Nuclear-solvent............       1.50841965926
   (E)  Total one-electron terms.....  -15478.11046443754
   (F)    Electron-nuclear...........  -18451.00370876033
   (G)    Electron-solvent...........      -1.54490482467
   (H)    Kinetic....................    2974.43814914747
   (I)  Total two-electron terms.....    6779.32165992486
   (J)    Coulomb....................    7093.91461290504
   (K)    Exchange+Correlation.......    -314.59295298018
   (L)  Electronic energy............   -8698.78880451268  (E+I)
   (N)  Total quantum mech. energy...   -2994.14194586115  (A+L)
   (O)  Gas phase energy.............   -2994.10666251539
   (P)  Solution phase energy........   -2994.12370327844  (Q+R+S)
   (Q)    Total solute energy........   -2994.10546069574  (N-C-G)
   (R)    Total solvent energy.......      -0.01824258271  (C/2+G/2)
   (S)    Solute cavity energy.......       0.00000000000
   (U)  Reorganization energy........       0.00120181965  (Q-O)
   (V)  Solvation energy.............      -0.01704076305  (P-O)
  
 SCFE:  Solution phase energy: DFT(m06-2x)      -2994.12370327844 hartrees
        SCF iterations:   5
  
 
 HOMO energy:    -0.28764
 LUMO energy:    -0.06874
 
  Orbital energies (hartrees): 
   -90.18216   -90.16351   -78.22656   -25.30071   -25.29925   -25.29881
   -19.69185   -19.68685   -19.66277   -19.65977   -19.63976   -19.63708
   -19.61880   -14.82785   -14.82544   -14.79781   -14.76166   -10.81537
   -10.66603   -10.63731   -10.63000   -10.62262   -10.61206   -10.61133
   -10.60308   -10.59122   -10.58898   -10.58418   -10.58273   -10.58049
   -10.57305   -10.57019   -10.56756   -10.56648   -10.56459   -10.56142
   -10.56084   -10.55166    -8.49226    -8.47249    -7.00442    -6.41460
    -6.41362    -6.41261    -6.39437    -6.39391    -6.39375    -5.12315
    -5.12196    -5.12017    -1.46577    -1.37550    -1.37406    -1.25641
    -1.23285    -1.21365    -1.16999    -1.14515    -1.11878    -1.11812
    -1.10033    -1.08798    -1.07134    -0.99290    -0.97394    -0.92729
    -0.91961    -0.90377    -0.90060    -0.88127    -0.85472    -0.84635
    -0.83952    -0.82336    -0.80880    -0.77352    -0.76278    -0.74160
    -0.73409    -0.71876    -0.69669    -0.69554    -0.69214    -0.69040
    -0.68844    -0.68009    -0.67484    -0.66628    -0.65526    -0.64950
    -0.62639    -0.62053    -0.61130    -0.59839    -0.58606    -0.58533
    -0.57528    -0.57443    -0.57051    -0.56846    -0.56545    -0.54778
    -0.54705    -0.54236    -0.53991    -0.53827    -0.53669    -0.53638
    -0.53049    -0.52698    -0.52429    -0.51779    -0.51361    -0.51146
    -0.50933    -0.50525    -0.50299    -0.49751    -0.49415    -0.48604
    -0.48027    -0.47527    -0.46826    -0.46426    -0.46358    -0.44922
    -0.43971    -0.43577    -0.43219    -0.42705    -0.42121    -0.41717
    -0.41204    -0.40961    -0.40693    -0.40121    -0.39661    -0.39324
    -0.39022    -0.38208    -0.36778    -0.36560    -0.35652    -0.35318
    -0.34454    -0.34128    -0.33930    -0.31984    -0.31323    -0.31122
    -0.29296    -0.28764    -0.06874    -0.02477    -0.00376    -0.00007
     0.02089     0.02273     0.06264     0.07399     0.08433     0.09277
 
  Peak memory usage:    747 Mb
  
  end of program scf
   
 Time(scf)  user:     1883.0  user+sys:     1893.0  wallclock:     4069.7
  
  start of program sole
  
    SCRF                   solvation energy
  iteration          Hartrees            kcal/mol
     0               0.0000000            0.0000
     1              -0.0170408          -10.6932
  
  solvation energy not yet converged... 
  
  Peak memory usage:    623 Mb
  
  end of program sole
   
 Time(sole)  user:        0.0  user+sys:        0.0  wallclock:        0.3
  
  start of program ch
  
  gridpoints used for charge fit         7876
    out of a possible maximum of         7876
  
   Electrostatic potential fitting constrained to reproduce
     total charge:                yes
     dipole moment:               no 
     traceless quadrupole moment: no 
     traceless octapole moment:   no 
  
  Atomic charges from electrostatic potential: 
   
 Atom       C1           C2           C3           C4           H5      
 Charge   -0.00756     -0.21826     -0.17574     -0.04200      0.17222
   
 Atom       H6           H7           H8           O9           P10     
 Charge    0.16085      0.16903      0.18169     -0.25591      0.85137
   
 Atom       O11          O12          N13          S14          O15     
 Charge   -0.26338     -0.60114     -0.51640      0.72532     -0.46883
   
 Atom       O16          C17          F18          F19          F20     
 Charge   -0.43943      0.30521     -0.11042     -0.11504     -0.07286
   
 Atom       H21          C22          N23          S24          O25     
 Charge    0.06750     -0.36463     -0.06931      0.79271     -0.47619
   
 Atom       O26          C27          C28          N29          C30     
 Charge   -0.46970     -0.36256      0.30765     -0.50680      0.43610
   
 Atom       C31          C32          H33          H34          H35     
 Charge   -0.38526      0.14041      0.19077      0.08295      0.18682
   
 Atom       H36          C37          C38          C39          C40     
 Charge    0.13088     -0.11952     -0.09714     -0.28251      0.36540
   
 Atom       C41          C42          H43          H44          H45     
 Charge   -0.21688     -0.13744      0.13907      0.14348      0.24403
   
 Atom       H46          H47          H48          C49          C50     
 Charge    0.14193      0.14895      0.24430     -0.10833     -0.12317
   
 Atom       C51          C52          H53          H54          H55     
 Charge   -0.31973      0.30869      0.19749      0.16362      0.20549
   
 Atom       H56          N57          H58     
 Charge   -0.01375     -0.13429      0.27023
  
  sum of atomic charges:     0.000000
   
 RMS Error   1.12E-03 hartrees
 
  Peak memory usage:    551 Mb
  
  end of program ch
   
 Time(ch)  user:        3.0  user+sys:        3.0  wallclock:       10.4
  
  start of program post
  
  Writing input files for PBF
  Peak memory usage:    524 Mb
  
  end of program post
   
 Time(post)  user:        0.0  user+sys:        0.0  wallclock:        0.5

  start of program pbf

Pbf Version 4.00

Molecular surface area:      408.14341   [A2]
Reaction field energy:       -19.76678   [kT]
  Peak memory usage: 513 Mb

  end of program pbf

 Time(pbf)  user:        1.9  user+sys:        1.9  wallclock:        3.5
  
  start of program solv
  
   number of surface charges from PBF    5958
   sum of surface charges     -0.00023
   
  nuclear repulsion energy.......    5703.138438992 hartrees
  Peak memory usage:    652 Mb
  
  end of program solv
   
 Time(solv)  user:        6.0  user+sys:        6.0  wallclock:       13.4
  
  start of program scf
  
  
       i  u  d  i  g                   
       t  p  i  c  r                                 RMS    maximum
       e  d  i  u  i                       energy  density   DIIS  
       r  t  s  t  d       total energy    change  change    error 
  
etot    1  N  N  1  U   -2994.14491447174           1.7E-05  2.3E-04
etot    2  N  N  1  U   -2994.14492163753  7.2E-06  0.0E+00  0.0E+00
  
  
 Energy components, in hartrees:
   (A)  Total zero-electron terms....    5704.82423855351
   (B)    Nuclear-nuclear............    5703.13843899227
   (C)    Nuclear-solvent............       1.68579956124
   (E)  Total one-electron terms.....  -15478.48919163958
   (F)    Electron-nuclear...........  -18451.20757387475
   (G)    Electron-solvent...........      -1.72565467473
   (H)    Kinetic....................    2974.44403690990
   (I)  Total two-electron terms.....    6779.52003144854
   (J)    Coulomb....................    7094.11435337901
   (K)    Exchange+Correlation.......    -314.59432193047
   (L)  Electronic energy............   -8698.96916019104  (E+I)
   (N)  Total quantum mech. energy...   -2994.14492163753  (A+L)
   (O)  Gas phase energy.............   -2994.10666251539
   (P)  Solution phase energy........   -2994.12499408078  (Q+R+S)
   (Q)    Total solute energy........   -2994.10506652404  (N-C-G)
   (R)    Total solvent energy.......      -0.01992755675  (C/2+G/2)
   (S)    Solute cavity energy.......       0.00000000000
   (U)  Reorganization energy........       0.00159599135  (Q-O)
   (V)  Solvation energy.............      -0.01833156539  (P-O)
  
 SCFE:  Solution phase energy: DFT(m06-2x)      -2994.12499408078 hartrees
        SCF iterations:   2
  
 
 HOMO energy:    -0.30554
 LUMO energy:    -0.06789
 
  Orbital energies (hartrees): 
   -81.04003   -55.47353   -55.42538   -53.22909   -52.41233   -29.96245
   -23.95992   -20.68841   -19.63230   -19.16162   -17.56760   -16.92254
   -15.44620   -14.61080   -14.44833   -12.99357   -12.55175   -11.96933
   -11.74833   -11.65194   -11.61579   -11.35544   -11.28005   -11.22320
   -11.20346   -11.01005   -10.65729   -10.63116   -10.61665   -10.58619
   -10.54290   -10.54229   -10.53363   -10.52655   -10.50589   -10.25213
   -10.15121   -10.08785    -9.64147    -9.01269    -8.27538    -7.73501
    -7.01424    -6.72268    -6.65499    -6.58846    -6.49318    -6.43092
    -6.08685    -6.03646    -1.46001    -1.42250    -1.39200    -1.22123
    -1.15125    -1.14463    -1.13981    -1.12653    -1.07973    -1.01654
    -1.00496    -0.96213    -0.96144    -0.95222    -0.91707    -0.91206
    -0.90743    -0.88822    -0.87760    -0.87409    -0.82544    -0.81453
    -0.80541    -0.80266    -0.78459    -0.77517    -0.77432    -0.76360
    -0.74440    -0.71980    -0.69506    -0.68098    -0.67565    -0.67363
    -0.67045    -0.65589    -0.64661    -0.64375    -0.62554    -0.62328
    -0.62283    -0.62159    -0.62054    -0.61985    -0.61060    -0.60713
    -0.60288    -0.59725    -0.59336    -0.58553    -0.58497    -0.57651
    -0.56535    -0.56438    -0.56323    -0.56309    -0.55700    -0.55507
    -0.55136    -0.54590    -0.53817    -0.53299    -0.52313    -0.51892
    -0.51688    -0.51545    -0.50766    -0.50621    -0.50603    -0.50580
    -0.50572    -0.50306    -0.50267    -0.50074    -0.49799    -0.48572
    -0.48346    -0.48007    -0.47428    -0.47340    -0.47313    -0.47031
    -0.46951    -0.46865    -0.46792    -0.45797    -0.44828    -0.44669
    -0.43978    -0.43543    -0.42695    -0.42301    -0.42030    -0.40426
    -0.38427    -0.36690    -0.36452    -0.34820    -0.34373    -0.34240
    -0.32501    -0.30554    -0.06789    -0.02434    -0.00347    -0.00020
     0.02124     0.02316     0.06266     0.07436     0.08492     0.09271
 
  Peak memory usage:    747 Mb
  
  end of program scf
   
 Time(scf)  user:      478.0  user+sys:      481.0  wallclock:     1043.0
  
  start of program sole
  
    SCRF                   solvation energy
  iteration          Hartrees            kcal/mol
     0               0.0000000            0.0000
     1              -0.0170408          -10.6932
     2              -0.0183316          -11.5032
  
  solvation energy not yet converged... 
  
  Peak memory usage:    623 Mb
  
  end of program sole
   
 Time(sole)  user:        0.0  user+sys:        0.0  wallclock:        0.4
  
  start of program ch
  
  gridpoints used for charge fit         7876
    out of a possible maximum of         7876
  
   Electrostatic potential fitting constrained to reproduce
     total charge:                yes
     dipole moment:               no 
     traceless quadrupole moment: no 
     traceless octapole moment:   no 
  
  Atomic charges from electrostatic potential: 
   
 Atom       C1           C2           C3           C4           H5      
 Charge   -0.00677     -0.21774     -0.17853     -0.04012      0.17263
   
 Atom       H6           H7           H8           O9           P10     
 Charge    0.16166      0.16979      0.18116     -0.25599      0.85197
   
 Atom       O11          O12          N13          S14          O15     
 Charge   -0.26370     -0.60112     -0.51686      0.72766     -0.47275
   
 Atom       O16          C17          F18          F19          F20     
 Charge   -0.44031      0.30490     -0.11074     -0.11419     -0.07284
   
 Atom       H21          C22          N23          S24          O25     
 Charge    0.06918     -0.36422     -0.07387      0.78957     -0.47608
   
 Atom       O26          C27          C28          N29          C30     
 Charge   -0.47050     -0.35914      0.30777     -0.50892      0.43369
   
 Atom       C31          C32          H33          H34          H35     
 Charge   -0.38596      0.14173      0.19159      0.08408      0.18672
   
 Atom       H36          C37          C38          C39          C40     
 Charge    0.13150     -0.11830     -0.09829     -0.28225      0.35926
   
 Atom       C41          C42          H43          H44          H45     
 Charge   -0.21579     -0.13573      0.13942      0.14338      0.24353
   
 Atom       H46          H47          H48          C49          C50     
 Charge    0.14296      0.14951      0.24424     -0.10350     -0.11776
   
 Atom       C51          C52          H53          H54          H55     
 Charge   -0.32200      0.31231      0.19758      0.16359      0.20676
   
 Atom       H56          N57          H58     
 Charge   -0.01534     -0.13915      0.27033
  
  sum of atomic charges:     0.000000
   
 RMS Error   1.12E-03 hartrees
 
  Peak memory usage:    551 Mb
  
  end of program ch
   
 Time(ch)  user:        3.0  user+sys:        3.0  wallclock:        8.1
  
  start of program post
  
  Writing input files for PBF
  Peak memory usage:    524 Mb
  
  end of program post
   
 Time(post)  user:        0.0  user+sys:        0.0  wallclock:        0.4

  start of program pbf

Pbf Version 4.00

Molecular surface area:      408.14341   [A2]
Reaction field energy:       -20.20877   [kT]
  Peak memory usage: 513 Mb

  end of program pbf

 Time(pbf)  user:        1.9  user+sys:        2.0  wallclock:        4.6
  
  start of program solv
  
   number of surface charges from PBF    5958
   sum of surface charges     -0.00023
   
  nuclear repulsion energy.......    5703.138438992 hartrees
  Peak memory usage:    652 Mb
  
  end of program solv
   
 Time(solv)  user:        6.0  user+sys:        6.0  wallclock:       13.2
  
  start of program scf
  
  
       i  u  d  i  g                   
       t  p  i  c  r                                 RMS    maximum
       e  d  i  u  i                       energy  density   DIIS  
       r  t  s  t  d       total energy    change  change    error 
  
etot    1  N  N  1  U   -2994.14535846909           1.5E-05  2.4E-04
etot    2  N  N  1  U   -2994.14534027317 -1.8E-05  0.0E+00  0.0E+00
  
  
 Energy components, in hartrees:
   (A)  Total zero-electron terms....    5704.86224366632
   (B)    Nuclear-nuclear............    5703.13843899227
   (C)    Nuclear-solvent............       1.72380467405
   (E)  Total one-electron terms.....  -15478.34308949647
   (F)    Electron-nuclear...........  -18451.01206897761
   (G)    Electron-solvent...........      -1.76397164380
   (H)    Kinetic....................    2974.43295112493
   (I)  Total two-electron terms.....    6779.33550555698
   (J)    Coulomb....................    7093.92909992052
   (K)    Exchange+Correlation.......    -314.59359436354
   (L)  Electronic energy............   -8699.00758393949  (E+I)
   (N)  Total quantum mech. energy...   -2994.14534027317  (A+L)
   (O)  Gas phase energy.............   -2994.10666251539
   (P)  Solution phase energy........   -2994.12525678830  (Q+R+S)
   (Q)    Total solute energy........   -2994.10517330343  (N-C-G)
   (R)    Total solvent energy.......      -0.02008348487  (C/2+G/2)
   (S)    Solute cavity energy.......       0.00000000000
   (U)  Reorganization energy........       0.00148921196  (Q-O)
   (V)  Solvation energy.............      -0.01859427291  (P-O)
  
 SCFE:  Solution phase energy: DFT(m06-2x)      -2994.12525678830 hartrees
        SCF iterations:   2
  
 
 HOMO energy:    -0.28768
 LUMO energy:    -0.06903
 
  Orbital energies (hartrees): 
   -90.18476   -90.16518   -78.22699   -25.30128   -25.30098   -25.30026
   -19.69169   -19.68650   -19.66378   -19.66137   -19.64065   -19.64025
   -19.61949   -14.82936   -14.82893   -14.79986   -14.76331   -10.81672
   -10.66855   -10.63985   -10.62951   -10.62037   -10.61160   -10.61054
   -10.60380   -10.59008   -10.58976   -10.58563   -10.58077   -10.57902
   -10.57225   -10.56909   -10.56750   -10.56545   -10.56309   -10.56176
   -10.56083   -10.55235    -8.49481    -8.47415    -7.00487    -6.41714
    -6.41618    -6.41515    -6.39603    -6.39557    -6.39542    -5.12359
    -5.12241    -5.12062    -1.46708    -1.37683    -1.37536    -1.25849
    -1.23453    -1.21376    -1.16990    -1.14706    -1.12059    -1.11811
    -1.10079    -1.08904    -1.07375    -0.99425    -0.97415    -0.92713
    -0.91967    -0.90394    -0.90029    -0.88167    -0.85471    -0.84591
    -0.84085    -0.82330    -0.80974    -0.77422    -0.76364    -0.74182
    -0.73498    -0.71964    -0.69695    -0.69531    -0.69328    -0.69169
    -0.68913    -0.68080    -0.67400    -0.66667    -0.65587    -0.64957
    -0.62667    -0.62108    -0.61250    -0.59920    -0.58648    -0.58592
    -0.57549    -0.57464    -0.57128    -0.56942    -0.56653    -0.54876
    -0.54776    -0.54283    -0.54052    -0.53929    -0.53739    -0.53721
    -0.53148    -0.52828    -0.52453    -0.51783    -0.51386    -0.51201
    -0.51010    -0.50543    -0.50357    -0.49754    -0.49392    -0.48639
    -0.47972    -0.47441    -0.46813    -0.46408    -0.46363    -0.44939
    -0.44091    -0.43686    -0.43344    -0.42763    -0.42172    -0.41790
    -0.41318    -0.41021    -0.40757    -0.40278    -0.39824    -0.39391
    -0.39173    -0.38327    -0.36939    -0.36583    -0.35751    -0.35423
    -0.34499    -0.34108    -0.34007    -0.32036    -0.31308    -0.31136
    -0.29316    -0.28768    -0.06903    -0.02537    -0.00389    -0.00013
     0.02083     0.02271     0.06266     0.07430     0.08354     0.09188
 
  Peak memory usage:    747 Mb
  
  end of program scf
   
 Time(scf)  user:      479.0  user+sys:      482.0  wallclock:     1043.4
  
  start of program sole
  
    SCRF                   solvation energy
  iteration          Hartrees            kcal/mol
     0               0.0000000            0.0000
     1              -0.0170408          -10.6932
     2              -0.0183316          -11.5032
     3              -0.0185943          -11.6681
  
  solvation energy not yet converged... 
  
  Peak memory usage:    623 Mb
  
  end of program sole
   
 Time(sole)  user:        0.0  user+sys:        0.0  wallclock:        0.4
  
  start of program ch
  
  gridpoints used for charge fit         7876
    out of a possible maximum of         7876
  
   Electrostatic potential fitting constrained to reproduce
     total charge:                yes
     dipole moment:               no 
     traceless quadrupole moment: no 
     traceless octapole moment:   no 
  
  Atomic charges from electrostatic potential: 
   
 Atom       C1           C2           C3           C4           H5      
 Charge   -0.00762     -0.21790     -0.17600     -0.04264      0.17286
   
 Atom       H6           H7           H8           O9           P10     
 Charge    0.16200      0.17014      0.18100     -0.25640      0.85081
   
 Atom       O11          O12          N13          S14          O15     
 Charge   -0.26400     -0.60108     -0.51376      0.72552     -0.47053
   
 Atom       O16          C17          F18          F19          F20     
 Charge   -0.44146      0.30460     -0.11078     -0.11457     -0.07249
   
 Atom       H21          C22          N23          S24          O25     
 Charge    0.06885     -0.36284     -0.06906      0.79345     -0.47928
   
 Atom       O26          C27          C28          N29          C30     
 Charge   -0.47321     -0.36303      0.30683     -0.50728      0.43812
   
 Atom       C31          C32          H33          H34          H35     
 Charge   -0.38668      0.13991      0.19237      0.08412      0.18663
   
 Atom       H36          C37          C38          C39          C40     
 Charge    0.13189     -0.12035     -0.09841     -0.28028      0.36368
   
 Atom       C41          C42          H43          H44          H45     
 Charge   -0.21683     -0.13887      0.13982      0.14320      0.24315
   
 Atom       H46          H47          H48          C49          C50     
 Charge    0.14278      0.15012      0.24401     -0.10981     -0.12188
   
 Atom       C51          C52          H53          H54          H55     
 Charge   -0.32303      0.31179      0.19893      0.16476      0.20736
   
 Atom       H56          N57          H58     
 Charge   -0.01445     -0.13505      0.27089
  
  sum of atomic charges:     0.000000
   
 RMS Error   1.12E-03 hartrees
 
  Peak memory usage:    551 Mb
  
  end of program ch
   
 Time(ch)  user:        3.0  user+sys:        3.0  wallclock:        8.2
  
  start of program post
  
  Writing input files for PBF
  Peak memory usage:    524 Mb
  
  end of program post
   
 Time(post)  user:        0.0  user+sys:        0.0  wallclock:        0.4

  start of program pbf

Pbf Version 4.00

Molecular surface area:      408.14341   [A2]
Reaction field energy:       -20.08280   [kT]
  Peak memory usage: 513 Mb

  end of program pbf

 Time(pbf)  user:        2.0  user+sys:        2.0  wallclock:        4.5
  
  start of program solv
  
   number of surface charges from PBF    5958
   sum of surface charges     -0.00022
   
  nuclear repulsion energy.......    5703.138438992 hartrees
  Peak memory usage:    652 Mb
  
  end of program solv
   
 Time(solv)  user:        5.0  user+sys:        5.0  wallclock:       14.4
  
  start of program scf
  
  
       i  u  d  i  g                   
       t  p  i  c  r                                 RMS    maximum
       e  d  i  u  i                       energy  density   DIIS  
       r  t  s  t  d       total energy    change  change    error 
  
etot    1  N  N  1  U   -2994.14522251746           2.2E-05  3.8E-04
etot    2  N  Y  1  U   -2994.14516455453 -5.8E-05  1.4E-05  6.9E-04
etot    3  N  Y  1  U   -2994.14524935500  8.5E-05  5.0E-07  1.8E-05
etot    4  N  N  1  U   -2994.14524942083  6.6E-08  0.0E+00  0.0E+00
  
  
 Energy components, in hartrees:
   (A)  Total zero-electron terms....    5704.83941215035
   (B)    Nuclear-nuclear............    5703.13843899227
   (C)    Nuclear-solvent............       1.70097315808
   (E)  Total one-electron terms.....  -15478.42728040447
   (F)    Electron-nuclear...........  -18451.12307579511
   (G)    Electron-solvent...........      -1.74109693564
   (H)    Kinetic....................    2974.43689232628
   (I)  Total two-electron terms.....    6779.44261883329
   (J)    Coulomb....................    7094.03643234378
   (K)    Exchange+Correlation.......    -314.59381351049
   (L)  Electronic energy............   -8698.98466157118  (E+I)
   (N)  Total quantum mech. energy...   -2994.14524942083  (A+L)
   (O)  Gas phase energy.............   -2994.10666251539
   (P)  Solution phase energy........   -2994.12518753205  (Q+R+S)
   (Q)    Total solute energy........   -2994.10512564327  (N-C-G)
   (R)    Total solvent energy.......      -0.02006188878  (C/2+G/2)
   (S)    Solute cavity energy.......       0.00000000000
   (U)  Reorganization energy........       0.00153687212  (Q-O)
   (V)  Solvation energy.............      -0.01852501666  (P-O)
  
 SCFE:  Solution phase energy: DFT(m06-2x)      -2994.12518753205 hartrees
        SCF iterations:   4
  
 
 HOMO energy:    -0.28768
 LUMO energy:    -0.06829
 
  Orbital energies (hartrees): 
   -90.18260   -90.16467   -78.22679   -25.30150   -25.30026   -25.30005
   -19.69197   -19.68719   -19.66442   -19.66176   -19.64148   -19.63834
   -19.61870   -14.82713   -14.82500   -14.79744   -14.76209   -10.81646
   -10.66531   -10.63738   -10.62973   -10.62223   -10.61211   -10.61081
   -10.60257   -10.59104   -10.58925   -10.58365   -10.58219   -10.57983
   -10.57255   -10.56952   -10.56754   -10.56642   -10.56433   -10.56155
   -10.56060   -10.55181    -8.49278    -8.47364    -7.00464    -6.41510
    -6.41415    -6.41311    -6.39553    -6.39507    -6.39491    -5.12337
    -5.12218    -5.12039    -1.46683    -1.37664    -1.37504    -1.25750
    -1.23407    -1.21385    -1.17011    -1.14648    -1.12012    -1.11767
    -1.10032    -1.08782    -1.07122    -0.99355    -0.97373    -0.92712
    -0.91959    -0.90352    -0.90020    -0.88100    -0.85452    -0.84584
    -0.84052    -0.82333    -0.80880    -0.77398    -0.76268    -0.74140
    -0.73474    -0.71872    -0.69655    -0.69505    -0.69303    -0.69138
    -0.68838    -0.68053    -0.67415    -0.66656    -0.65511    -0.64919
    -0.62659    -0.62048    -0.61171    -0.59899    -0.58633    -0.58545
    -0.57538    -0.57451    -0.57096    -0.56889    -0.56630    -0.54826
    -0.54725    -0.54246    -0.54027    -0.53889    -0.53699    -0.53673
    -0.53128    -0.52796    -0.52452    -0.51748    -0.51367    -0.51157
    -0.50995    -0.50527    -0.50288    -0.49734    -0.49387    -0.48573
    -0.47993    -0.47465    -0.46801    -0.46408    -0.46356    -0.44900
    -0.44048    -0.43632    -0.43266    -0.42718    -0.42150    -0.41759
    -0.41268    -0.40984    -0.40732    -0.40215    -0.39758    -0.39359
    -0.39115    -0.38274    -0.36880    -0.36555    -0.35700    -0.35324
    -0.34457    -0.34099    -0.33959    -0.31966    -0.31301    -0.31127
    -0.29256    -0.28768    -0.06829    -0.02472    -0.00360    -0.00014
     0.02108     0.02299     0.06271     0.07443     0.08434     0.09238
 
  Peak memory usage:    747 Mb
  
  end of program scf
   
 Time(scf)  user:     1401.0  user+sys:     1408.0  wallclock:     2991.9
  
  start of program sole
  
    SCRF                   solvation energy
  iteration          Hartrees            kcal/mol
     0               0.0000000            0.0000
     1              -0.0170408          -10.6932
     2              -0.0183316          -11.5032
     3              -0.0185943          -11.6681
     4              -0.0185250          -11.6246
  
  stopping: solvation energy converged
  
  iterations:   4    sfinal:    -11.6246 kcal/mol
  
  Peak memory usage:    623 Mb
  
  end of program sole
   
 Time(sole)  user:        0.0  user+sys:        0.0  wallclock:        0.3
  
  start of program post
  
  Writing input files for PBF
  Peak memory usage:    524 Mb
  
  end of program post
   
 Time(post)  user:        0.0  user+sys:        0.0  wallclock:        0.4

 Total cpu seconds     user:    8571.000   user+sys:    8619.000
  
 Total elapsed time:    18676 seconds

Job ModelCatalyst-8BindtoN-5-TS-fine-grid-uf-acc-sol_1 completed on tethys at Wed Jan 25 16:05:52 2017
