Job Toru-SiPh3-NTf-Type-I-E-4-scan-TS--SPE started on tethys at Fri Mar  3 15:39:20 2017
jobid: tethys-0-58b98e24

  +--------------------------------------------------------------------+
  |  Jaguar version 9.5, release  11                                   |
  |                                                                    |
  |  Copyright Schrodinger, Inc.                                       |
  |  All Rights Reserved.                                              |
  |                                                                    |
  |  The following have contributed to Jaguar (listed alphabetically): |
  |  Mike Beachy, Art Bochevarov, Dale Braden, Yixiang Cao,            |
  |  Chris Cortis, Rich Friesner, Bill Goddard, Hod Greeley,           |
  |  Tom Hughes, Leif Jacobson, Jean-Marc Langlois,                    |
  |  Daniel Mainz, Rob Murphy, Dean Philipp, Tom Pollard,              |
  |  Murco Ringnalda, Mark Watson, Haoyu Yu.                           |
  |                                                                    |
  |  Use of this program should be acknowledged in publications as:    |
  |                                                                    |
  |  Jaguar, version 9.5, Schrodinger, Inc., New York, NY, 2017.       |
  |                                                                    |
  |  A. D. Bochevarov, E. Harder, T. F. Hughes, J. R. Greenwood,       |
  |  D. A. Braden, D. M. Philipp, D. Rinaldo, M. D. Halls,             |
  |  J. Zhang, R. A. Friesner, "Jaguar: A High-Performance Quantum     |
  |  Chemistry Software Program with Strengths in Life and Materials   |
  |  Sciences", Int. J. Quantum Chem., 2013, 113(18), 2110-2142.       |
  +--------------------------------------------------------------------+
  
  start of program pre
  
  Job name: Toru-SiPh3-NTf-Type-I-E-4-scan-TS--SPE
  Executables used: /usr/local/shared/schrodinger/current/jaguar-v9.5/bin/Linux-x86_64
  Temporary files : /scratch/ab2144/Toru-SiPh3-NTf-Type-I-E-4-scan-TS--SPE
  Maestro file (input):  Toru-SiPh3-NTf-Type-I-E-4-scan-TS--SPE.mae
  Maestro file (output): Toru-SiPh3-NTf-Type-I-E-4-scan-TS--SPE.01.mae
  
  basis set:             6-31g**                         
  net molecular charge:    0
  multiplicity:            1
  
  keygrid settings 
    wispc.....   7.500E-01
    ldens.....   0
    denspc....   7.500E-01
  
   grid     daf set  nls  grid set  Q type
  ------    -------  ---  --------  ------
  coarse       1      1       1        1
  medium       2      2       2        1
  fine         3      2       3        0
  ultrafine    4      2       4        1
  charge       0      1      -1        1
  gradient     5      2       4        1
  density      0      1       0        0
  DFT-fine     0      1     -13        0
  DFT-med.     0      1     -13        0
  DFT-grad     0      1     -13        0
  DFT-der2     0      1       0        0
  DFT-cphf     0      1       0        0
  LMP2-enrg    4      2       4        1
  LMP2-grad    5      2       2        1
  DFT-cphf2    0      1       0        0
  PBF-dens     0      1       0        0
  plotting     0      1       0        0
  Rel-grad     0      1     -17        0
  
  idftgrdm  100
  ndftgrdm   50    0    0
  idftgrdf  111
  ndftgrdf   85    0    0
  idftgrdg  111
  ndftgrdg   80    3    0
  idftgrdu  433
  ndftgrdu  105    0    0
  idftgrdd  433
  ndftgrdd  105    0    0
  idftgrdc  433
  ndftgrdc   26    0    0
  idftgrdp  433
  ndftgrdp   18    0    0
  
  number of basis functions....         1680
  
 Input geometry:
                                   angstroms
  atom               x                 y                 z
  C1           -2.4151000000      5.3109000000     -0.0125000000 
  C2           -2.9076000000      3.9063000000     -0.1034000000 
  C3           -3.2473000000      6.3013000000      0.3286000000 
  C4           -4.1926000000      3.6472000000      0.2212000000 
  C5           -2.0047000000      2.7782000000     -0.4952000000 
  C6           -5.1076000000      4.7521000000      0.5922000000 
  C7           -4.6787000000      2.2582000000      0.2633000000 
  C8           -4.6596000000      6.0106000000      0.6351000000 
  C9           -2.4379000000      1.5009000000     -0.3766000000 
  C10          -0.6130000000      3.0532000000     -0.9339000000 
  C11          -3.8579000000      1.2320000000     -0.0068000000 
  O12          -1.6264000000      0.4559000000     -0.7470000000 
  Si13         -4.4893000000     -0.5050000000      0.2615000000 
  C14          -0.3288000000      3.8515000000     -1.9865000000 
  C15           0.4938000000      2.5452000000     -0.0794000000 
  C16           1.0552000000      4.3540000000     -2.1663000000 
  C17          -1.3519000000      4.2884000000     -2.9684000000 
  C18           2.0071000000      4.0402000000     -1.2770000000 
  C19           1.3411000000      5.2450000000     -3.3081000000 
  C20           1.7162000000      3.1175000000     -0.1511000000 
  Si21          3.1068000000      2.7193000000      1.0456000000 
  O22           0.2343000000      1.5489000000      0.8257000000 
  C23          -1.0197000000      5.1014000000     -3.9783000000 
  C24           0.3644000000      5.5931000000     -4.1534000000 
  P25          -0.3357000000      0.1362000000      0.2131000000 
  O26          -0.6785000000     -0.6953000000      1.4147000000 
  N27           0.7080000000     -0.6475000000     -0.7567000000 
  C28          -3.9849000000     -1.0451000000      1.9773000000 
  C29          -6.3578000000     -0.4812000000      0.1330000000 
  C30          -3.8446000000     -1.6593000000     -1.0569000000 
  C31           3.9301000000      1.1487000000      0.4808000000 
  C32           4.3774000000      4.0812000000      0.9379000000 
  C33           2.4783000000      2.6116000000      2.8103000000 
  C34          -4.2950000000     -2.2735000000      2.4282000000 
  C35          -3.2998000000     -0.0918000000      2.8866000000 
  C36          -7.1405000000     -0.9393000000      1.1273000000 
  C37          -6.9983000000      0.1014000000     -1.0737000000 
  C38          -3.1540000000     -2.7687000000     -0.7395000000 
  C39          -4.1570000000     -1.3894000000     -2.4821000000 
  C40           4.2562000000      0.1724000000      1.3423000000 
  C41           4.3057000000      1.0103000000     -0.9466000000 
  C42           3.9996000000      5.3697000000      1.0097000000 
  C43           5.8143000000      3.7545000000      0.7618000000 
  C44           2.6831000000      3.6142000000      3.6842000000 
  C45           1.7401000000      1.4079000000      3.2669000000 
  C46          -3.9707000000     -2.6642000000      3.8153000000 
  C47          -3.3689000000     -1.7937000000      4.6335000000 
  C48          -3.0072000000     -0.4491000000      4.1429000000 
  C49          -8.6122000000     -0.9107000000      0.9956000000 
  C50          -9.1782000000     -0.4094000000     -0.1072000000 
  C51          -8.3315000000      0.1303000000     -1.1879000000 
  C52          -2.7840000000     -3.7442000000     -1.7867000000 
  C53          -3.1255000000     -3.5231000000     -3.0607000000 
  C54          -3.8343000000     -2.2813000000     -3.4272000000 
  C55           4.9078000000     -1.0631000000      0.8566000000 
  C56           5.2047000000     -1.1999000000     -0.4404000000 
  C57           4.9043000000     -0.1049000000     -1.3833000000 
  C58           5.0039000000      6.4484000000      0.9089000000 
  C59           6.2971000000      6.1471000000      0.7458000000 
  C60           6.7217000000      4.7348000000      0.6701000000 
  C61           2.1501000000      3.5307000000      5.0607000000 
  C62           1.4631000000      2.4518000000      5.4510000000 
  C63           1.2521000000      1.3358000000      4.5105000000 
  C64           3.7601000000     -4.3758000000      3.8136000000 
  C65           3.0116000000     -4.7296000000      2.6966000000 
  C66           2.2432000000     -3.7706000000      2.0122000000 
  C67           2.2111000000     -2.4520000000      2.4899000000 
  C68           2.9413000000     -2.1107000000      3.6298000000 
  C69           3.7209000000     -3.0622000000      4.2858000000 
  C70           1.4927000000     -4.2474000000      0.8330000000 
  N71           1.4044000000     -3.5427000000     -0.3379000000 
  S72           1.2963000000     -4.4303000000     -1.8115000000 
  O73           1.0211000000     -5.8125000000     -1.4063000000 
  O74           0.4028000000     -3.7222000000     -2.7170000000 
  C75           2.9923000000     -4.3281000000     -2.4425000000 
  C76           3.2339000000     -3.7065000000     -3.6619000000 
  C77           4.5618000000     -3.6806000000     -4.0897000000 
  C78           5.5432000000     -4.2601000000     -3.2883000000 
  C79           5.1671000000     -4.8489000000     -2.0781000000 
  N80           3.9004000000     -4.8869000000     -1.6528000000 
  N81          -0.7213000000     -3.2429000000      2.1210000000 
  C82          -0.6549000000     -3.4033000000      3.4416000000 
  C83          -0.4771000000     -4.7724000000      3.7500000000 
  C84          -0.4018000000     -5.4393000000      2.5425000000 
  C85          -0.4485000000     -4.4658000000      1.4947000000 
  H86          -1.3774000000      5.5502000000     -0.1990000000 
  H87          -2.8826000000      7.3183000000      0.3944000000 
  H88          -6.1427000000      4.5440000000      0.8331000000 
  H89          -5.6980000000      2.0833000000      0.5823000000 
  H90          -5.3281000000      6.8168000000      0.9081000000 
  H91          -2.3745000000      3.9407000000     -2.8945000000 
  H92           3.0104000000      4.4213000000     -1.4158000000 
  H93           2.3427000000      5.6272000000     -3.4659000000 
  H94          -1.7775000000      5.4043000000     -4.6894000000 
  H95           0.5876000000      6.2488000000     -4.9852000000 
  H96          -4.8134000000     -2.9818000000      1.7940000000 
  H97          -3.0308000000      0.8991000000      2.5468000000 
  H98          -6.7232000000     -1.3322000000      2.0406000000 
  H99          -6.3974000000      0.5460000000     -1.8528000000 
  H100         -2.8837000000     -2.9892000000      0.2805000000 
  H101         -4.6314000000     -0.4653000000     -2.7743000000 
  H102          4.0708000000      0.2800000000      2.3998000000 
  H103          4.1020000000      1.8137000000     -1.6429000000 
  H104          2.9569000000      5.6348000000      1.1347000000 
  H105          6.1436000000      2.7253000000      0.7142000000 
  H106          3.2258000000      4.5038000000      3.4056000000 
  H107          1.6115000000      0.5670000000      2.6048000000 
  H108         -4.2268000000     -3.6544000000      4.1690000000 
  H109         -3.1310000000     -2.0783000000      5.6502000000 
  H110         -2.5046000000      0.2466000000      4.8024000000 
  H111         -9.2310000000     -1.2975000000      1.7950000000 
  H112        -10.2560000000     -0.3870000000     -0.2041000000 
  H113         -8.7925000000      0.5665000000     -2.0647000000 
  H114         -2.2507000000     -4.6467000000     -1.5191000000 
  H115         -2.8604000000     -4.2395000000     -3.8274000000 
  H116         -4.0662000000     -2.0811000000     -4.4652000000 
  H117          5.1436000000     -1.8575000000      1.5527000000 
  H118          5.6786000000     -2.1046000000     -0.7980000000 
  H119          5.1701000000     -0.2064000000     -2.4275000000 
  H120          4.6898000000      7.4826000000      0.9654000000 
  H121          7.0342000000      6.9360000000      0.6709000000 
  H122          7.7695000000      4.4948000000      0.5438000000 
  H123          2.3127000000      4.3488000000      5.7505000000 
  H124          1.0700000000      2.3907000000      6.4575000000 
  H125          0.7168000000      0.4519000000      4.8334000000 
  H126          4.3668000000     -5.1223000000      4.3170000000 
  H127          3.0335000000     -5.7533000000      2.3337000000 
  H128          1.6086000000     -1.7059000000      1.9841000000 
  H129          2.9046000000     -1.0973000000      4.0117000000 
  H130          4.2927000000     -2.7816000000      5.1653000000 
  H131          1.6291000000     -5.3044000000      0.6326000000 
  H132          2.4306000000     -3.2350000000     -4.2114000000 
  H133          4.8225000000     -3.2011000000     -5.0276000000 
  H134          6.5867000000     -4.2509000000     -3.5853000000 
  H135          5.9084000000     -5.3009000000     -1.4237000000 
  H136         -0.7752000000     -2.2928000000      1.6746000000 
  H137         -0.7061000000     -2.5508000000      4.1038000000 
  H138         -0.4002000000     -5.1875000000      4.7444000000 
  H139         -0.2682000000     -6.5011000000      2.3849000000 
  H140         -0.8404000000     -4.6511000000      0.5050000000 
  S141          1.2439000000     -0.2336000000     -2.2144000000 
  O142          2.2375000000     -1.2437000000     -2.6040000000 
  C143         -0.1884000000     -0.4719000000     -3.4144000000 
  O144          1.5771000000      1.1850000000     -2.3993000000 
  F145         -1.0300000000     -1.4060000000     -2.9868000000 
  F146         -0.8588000000      0.6765000000     -3.5692000000 
  F147          0.3077000000     -0.8381000000     -4.6052000000 
  H148          1.2883000000     -2.5115000000     -0.4132000000 
   
  principal moments of inertia:
        amu*angstrom^2:    21545.41381    24065.59826    30424.55335
                g*cm^2: 3.57769969E-36 3.99618611E-36 5.05211531E-36
   
  rotational constants:
               cm^(-1):      0.00078242      0.00070049      0.00055408
                   GHz:      0.02345645      0.02100006      0.01661089
   
  Molecular weight:    1308.28 amu
   
  Stoichiometry: Si2C73PN4H56S2O7F3
[running at reduced cpu priority]
  Molecular Point Group: C1      
  Point Group used: C1
  
  nuclear repulsion energy.......   20980.009814045 hartrees
 
 Non-default options chosen:
   SCF calculation type: DFT(m06-2x)                 
   DFT=M06-2X
   Solvation energy will be computed using PBF
     -solute cavity energy will not be included
     -surface area terms will not be included
   Highest accuracy cutoffs used in SCF
   Solvent: other                                                           
   Internal dielectric constant:    1.000
   Continuum dielectric constant:   2.380
   Solvent probe molecule radius:   2.760
  
 Temporary integer options set:
     73=  2
  
  atom       vdw   vdw2    cov     mass  grid  daf  charge   basis
  C1        1.949  1.900  0.770   12.000    Y    Y      Y    6-31g**
  C2        1.949  1.900  0.770   12.000    Y    Y      Y    6-31g**
  C3        1.949  1.900  0.770   12.000    Y    Y      Y    6-31g**
  C4        1.949  1.900  0.770   12.000    Y    Y      Y    6-31g**
  C5        1.949  1.900  0.770   12.000    Y    Y      Y    6-31g**
  C6        1.949  1.900  0.770   12.000    Y    Y      Y    6-31g**
  C7        1.949  1.900  0.770   12.000    Y    Y      Y    6-31g**
  C8        1.949  1.900  0.770   12.000    Y    Y      Y    6-31g**
  C9        1.949  1.900  0.770   12.000    Y    Y      Y    6-31g**
  C10       1.949  1.900  0.770   12.000    Y    Y      Y    6-31g**
  C11       1.949  1.900  0.770   12.000    Y    Y      Y    6-31g**
  O12       1.702  1.600  0.730   15.995    Y    Y      Y    6-31g**
  Si13      2.217  2.147  1.110   27.977    Y    Y      Y    6-31g**
  C14       1.949  1.900  0.770   12.000    Y    Y      Y    6-31g**
  C15       1.949  1.900  0.770   12.000    Y    Y      Y    6-31g**
  C16       1.949  1.900  0.770   12.000    Y    Y      Y    6-31g**
  C17       1.949  1.900  0.770   12.000    Y    Y      Y    6-31g**
  C18       1.949  1.900  0.770   12.000    Y    Y      Y    6-31g**
  C19       1.949  1.900  0.770   12.000    Y    Y      Y    6-31g**
  C20       1.949  1.900  0.770   12.000    Y    Y      Y    6-31g**
  Si21      2.217  2.147  1.110   27.977    Y    Y      Y    6-31g**
  O22       1.702  1.600  0.730   15.995    Y    Y      Y    6-31g**
  C23       1.949  1.900  0.770   12.000    Y    Y      Y    6-31g**
  C24       1.949  1.900  0.770   12.000    Y    Y      Y    6-31g**
  P25       2.147  2.074  1.060   30.974    Y    Y      Y    6-31g**
  O26       1.702  1.600  0.730   15.995    Y    Y      Y    6-31g**
  N27       1.831  1.600  0.750   14.003    Y    Y      Y    6-31g**
  C28       1.949  1.900  0.770   12.000    Y    Y      Y    6-31g**
  C29       1.949  1.900  0.770   12.000    Y    Y      Y    6-31g**
  C30       1.949  1.900  0.770   12.000    Y    Y      Y    6-31g**
  C31       1.949  1.900  0.770   12.000    Y    Y      Y    6-31g**
  C32       1.949  1.900  0.770   12.000    Y    Y      Y    6-31g**
  C33       1.949  1.900  0.770   12.000    Y    Y      Y    6-31g**
  C34       1.949  1.900  0.770   12.000    Y    Y      Y    6-31g**
  C35       1.949  1.900  0.770   12.000    Y    Y      Y    6-31g**
  C36       1.949  1.900  0.770   12.000    Y    Y      Y    6-31g**
  C37       1.949  1.900  0.770   12.000    Y    Y      Y    6-31g**
  C38       1.949  1.900  0.770   12.000    Y    Y      Y    6-31g**
  C39       1.949  1.900  0.770   12.000    Y    Y      Y    6-31g**
  C40       1.949  1.900  0.770   12.000    Y    Y      Y    6-31g**
  C41       1.949  1.900  0.770   12.000    Y    Y      Y    6-31g**
  C42       1.949  1.900  0.770   12.000    Y    Y      Y    6-31g**
  C43       1.949  1.900  0.770   12.000    Y    Y      Y    6-31g**
  C44       1.949  1.900  0.770   12.000    Y    Y      Y    6-31g**
  C45       1.949  1.900  0.770   12.000    Y    Y      Y    6-31g**
  C46       1.949  1.900  0.770   12.000    Y    Y      Y    6-31g**
  C47       1.949  1.900  0.770   12.000    Y    Y      Y    6-31g**
  C48       1.949  1.900  0.770   12.000    Y    Y      Y    6-31g**
  C49       1.949  1.900  0.770   12.000    Y    Y      Y    6-31g**
  C50       1.949  1.900  0.770   12.000    Y    Y      Y    6-31g**
  C51       1.949  1.900  0.770   12.000    Y    Y      Y    6-31g**
  C52       1.949  1.900  0.770   12.000    Y    Y      Y    6-31g**
  C53       1.949  1.900  0.770   12.000    Y    Y      Y    6-31g**
  C54       1.949  1.900  0.770   12.000    Y    Y      Y    6-31g**
  C55       1.949  1.900  0.770   12.000    Y    Y      Y    6-31g**
  C56       1.949  1.900  0.770   12.000    Y    Y      Y    6-31g**
  C57       1.949  1.900  0.770   12.000    Y    Y      Y    6-31g**
  C58       1.949  1.900  0.770   12.000    Y    Y      Y    6-31g**
  C59       1.949  1.900  0.770   12.000    Y    Y      Y    6-31g**
  C60       1.949  1.900  0.770   12.000    Y    Y      Y    6-31g**
  C61       1.949  1.900  0.770   12.000    Y    Y      Y    6-31g**
  C62       1.949  1.900  0.770   12.000    Y    Y      Y    6-31g**
  C63       1.949  1.900  0.770   12.000    Y    Y      Y    6-31g**
  C64       1.949  1.900  0.770   12.000    Y    Y      Y    6-31g**
  C65       1.949  1.900  0.770   12.000    Y    Y      Y    6-31g**
  C66       1.949  1.900  0.770   12.000    Y    Y      Y    6-31g**
  C67       1.949  1.900  0.770   12.000    Y    Y      Y    6-31g**
  C68       1.949  1.900  0.770   12.000    Y    Y      Y    6-31g**
  C69       1.949  1.900  0.770   12.000    Y    Y      Y    6-31g**
  C70       1.949  1.900  0.770   12.000    Y    Y      Y    6-31g**
  N71       1.831  1.600  0.750   14.003    Y    Y      Y    6-31g**
  S72       2.070  1.900  1.020   31.972    Y    Y      Y    6-31g**
  O73       1.702  1.600  0.730   15.995    Y    Y      Y    6-31g**
  O74       1.702  1.600  0.730   15.995    Y    Y      Y    6-31g**
  C75       1.949  1.900  0.770   12.000    Y    Y      Y    6-31g**
  C76       1.949  1.900  0.770   12.000    Y    Y      Y    6-31g**
  C77       1.949  1.900  0.770   12.000    Y    Y      Y    6-31g**
  C78       1.949  1.900  0.770   12.000    Y    Y      Y    6-31g**
  C79       1.949  1.900  0.770   12.000    Y    Y      Y    6-31g**
  N80       1.831  1.600  0.750   14.003    Y    Y      Y    6-31g**
  N81       1.831  1.600  0.750   14.003    Y    Y      Y    6-31g**
  C82       1.949  1.900  0.770   12.000    Y    Y      Y    6-31g**
  C83       1.949  1.900  0.770   12.000    Y    Y      Y    6-31g**
  C84       1.949  1.900  0.770   12.000    Y    Y      Y    6-31g**
  C85       1.949  1.900  0.770   12.000    Y    Y      Y    6-31g**
  H86       1.597  1.150  0.320    1.008    Y    Y      Y    6-31g**
  H87       1.597  1.150  0.320    1.008    Y    Y      Y    6-31g**
  H88       1.597  1.150  0.320    1.008    Y    Y      Y    6-31g**
  H89       1.597  1.150  0.320    1.008    Y    Y      Y    6-31g**
  H90       1.597  1.150  0.320    1.008    Y    Y      Y    6-31g**
  H91       1.597  1.150  0.320    1.008    Y    Y      Y    6-31g**
  H92       1.597  1.150  0.320    1.008    Y    Y      Y    6-31g**
  H93       1.597  1.150  0.320    1.008    Y    Y      Y    6-31g**
  H94       1.597  1.150  0.320    1.008    Y    Y      Y    6-31g**
  H95       1.597  1.150  0.320    1.008    Y    Y      Y    6-31g**
  H96       1.597  1.150  0.320    1.008    Y    Y      Y    6-31g**
  H97       1.597  1.150  0.320    1.008    Y    Y      Y    6-31g**
  H98       1.597  1.150  0.320    1.008    Y    Y      Y    6-31g**
  H99       1.597  1.150  0.320    1.008    Y    Y      Y    6-31g**
  H100      1.597  1.150  0.320    1.008    Y    Y      Y    6-31g**
  H101      1.597  1.150  0.320    1.008    Y    Y      Y    6-31g**
  H102      1.597  1.150  0.320    1.008    Y    Y      Y    6-31g**
  H103      1.597  1.150  0.320    1.008    Y    Y      Y    6-31g**
  H104      1.597  1.150  0.320    1.008    Y    Y      Y    6-31g**
  H105      1.597  1.150  0.320    1.008    Y    Y      Y    6-31g**
  H106      1.597  1.150  0.320    1.008    Y    Y      Y    6-31g**
  H107      1.597  1.150  0.320    1.008    Y    Y      Y    6-31g**
  H108      1.597  1.150  0.320    1.008    Y    Y      Y    6-31g**
  H109      1.597  1.150  0.320    1.008    Y    Y      Y    6-31g**
  H110      1.597  1.150  0.320    1.008    Y    Y      Y    6-31g**
  H111      1.597  1.150  0.320    1.008    Y    Y      Y    6-31g**
  H112      1.597  1.150  0.320    1.008    Y    Y      Y    6-31g**
  H113      1.597  1.150  0.320    1.008    Y    Y      Y    6-31g**
  H114      1.597  1.150  0.320    1.008    Y    Y      Y    6-31g**
  H115      1.597  1.150  0.320    1.008    Y    Y      Y    6-31g**
  H116      1.597  1.150  0.320    1.008    Y    Y      Y    6-31g**
  H117      1.597  1.150  0.320    1.008    Y    Y      Y    6-31g**
  H118      1.597  1.150  0.320    1.008    Y    Y      Y    6-31g**
  H119      1.597  1.150  0.320    1.008    Y    Y      Y    6-31g**
  H120      1.597  1.150  0.320    1.008    Y    Y      Y    6-31g**
  H121      1.597  1.150  0.320    1.008    Y    Y      Y    6-31g**
  H122      1.597  1.150  0.320    1.008    Y    Y      Y    6-31g**
  H123      1.597  1.150  0.320    1.008    Y    Y      Y    6-31g**
  H124      1.597  1.150  0.320    1.008    Y    Y      Y    6-31g**
  H125      1.597  1.150  0.320    1.008    Y    Y      Y    6-31g**
  H126      1.597  1.150  0.320    1.008    Y    Y      Y    6-31g**
  H127      1.597  1.150  0.320    1.008    Y    Y      Y    6-31g**
  H128      1.597  1.150  0.320    1.008    Y    Y      Y    6-31g**
  H129      1.597  1.150  0.320    1.008    Y    Y      Y    6-31g**
  H130      1.597  1.150  0.320    1.008    Y    Y      Y    6-31g**
  H131      1.597  1.150  0.320    1.008    Y    Y      Y    6-31g**
  H132      1.597  1.150  0.320    1.008    Y    Y      Y    6-31g**
  H133      1.597  1.150  0.320    1.008    Y    Y      Y    6-31g**
  H134      1.597  1.150  0.320    1.008    Y    Y      Y    6-31g**
  H135      1.597  1.150  0.320    1.008    Y    Y      Y    6-31g**
  H136      1.597  1.150  0.320    1.008    Y    Y      Y    6-31g**
  H137      1.597  1.150  0.320    1.008    Y    Y      Y    6-31g**
  H138      1.597  1.150  0.320    1.008    Y    Y      Y    6-31g**
  H139      1.597  1.150  0.320    1.008    Y    Y      Y    6-31g**
  H140      1.597  1.150  0.320    1.008    Y    Y      Y    6-31g**
  S141      2.070  1.900  1.020   31.972    Y    Y      Y    6-31g**
  O142      1.702  1.600  0.730   15.995    Y    Y      Y    6-31g**
  C143      1.949  1.900  0.770   12.000    Y    Y      Y    6-31g**
  O144      1.702  1.600  0.730   15.995    Y    Y      Y    6-31g**
  F145      1.736  1.682  0.720   18.998    Y    Y      Y    6-31g**
  F146      1.736  1.682  0.720   18.998    Y    Y      Y    6-31g**
  F147      1.736  1.682  0.720   18.998    Y    Y      Y    6-31g**
  H148      1.597  1.150  0.320    1.008    Y    Y      Y    6-31g**
  
  Peak memory usage:    768 Mb
  
  end of program pre
   
 Time(pre)  user:        1.1  user+sys:        1.1  wallclock:        6.7
  
  start of program onee
  
  smallest eigenvalue of S:    2.340E-04
  number of canonical orbitals.....         1673
  Peak memory usage:    900 Mb
  
  end of program onee
   
 Time(onee)  user:       19.0  user+sys:       19.0  wallclock:      106.3
  
  start of program hfig
  
  initial wavefunction generated automatically from atomic wavefunctions
 
  Irreducible     Total no   No of occupied orbitals 
  representation  orbitals   Shell_1  Shell_2    ...
  No Symm         1673        340
  ------------------------
  Orbital occupation/shell    1.000
 
  Peak memory usage:    833 Mb
  
  end of program hfig
   
 Time(hfig)  user:       29.5  user+sys:       29.5  wallclock:      150.6
  
  start of program probe
  
  Peak memory usage:    826 Mb
  
  end of program probe
   
 Time(probe)  user:       21.3  user+sys:       21.3  wallclock:      115.4
  
  start of program grid
  
   grid     grid set  grid #  grid sym
  ------    --------  ------  --------
  coarse        0        0        1
  medium        2        1        1
  fine          0        0        1
  ultrafine     4        2        1
  charge       -1        3        1
  gradient      4        2        1
  density       0        0        1
  DFT-fine    -13        4        1
  DFT-med.    -13        4        1
  DFT-grad    -13        4        1
  DFT-der2      0        0        1
  DFT-cphf      0        0        1
  LMP2-enrg     4        2        1
  LMP2-grad     2        1        1
  DFT-cphf2     0        0        1
  PBF-dens      0        0        1
  plotting      0        0        1
  Rel-grad    -17        0        1
  
  number of gridpoints: 
     atom        C1       C2       C3       C4       C5       C6       C7
  grid # 1       97      100       94      101      100       96       93
  grid # 2      338      360      337      366      357      335      335
  grid # 3       35       26       44       43       15       48       19
  grid # 4    48124    48124    48124    48124    48124    48124    48124
   
  number of gridpoints: 
     atom        C8       C9      C10      C11      O12     Si13      C14
  grid # 1       94       97      100      101      111      475      101
  grid # 2      336      357      355      359      436      475      356
  grid # 3       49       20        9       12       26       11       13
  grid # 4    48124    48124    48124    48124    47716    38542    48124
   
  number of gridpoints: 
     atom       C15      C16      C17      C18      C19      C20     Si21
  grid # 1       98      101       96       94       97      101      477
  grid # 2      358      364      335      330      339      360      477
  grid # 3       20       24       21       13       38       14        9
  grid # 4    48124    48124    48124    48124    48124    48124    38542
   
  number of gridpoints: 
     atom       O22      C23      C24      P25      O26      N27      C28
  grid # 1      112       95       94      446      116      108      101
  grid # 2      436      339      339      446      441      401      359
  grid # 3       50       34       44        7       34       23       10
  grid # 4    47716    48124    48124    38640    47716    47928    48124
   
  number of gridpoints: 
     atom       C29      C30      C31      C32      C33      C34      C35
  grid # 1      101      100      100      101      101       92       97
  grid # 2      361      360      358      356      362      332      335
  grid # 3       21       20        8       13       19        9       22
  grid # 4    48124    48124    48124    48124    48124    48124    48124
   
  number of gridpoints: 
     atom       C36      C37      C38      C39      C40      C41      C42
  grid # 1       94       95       93       97       92       95       92
  grid # 2      337      334      335      337      332      331      332
  grid # 3       31       28       22       22       15       10       10
  grid # 4    48124    48124    48124    48124    48124    48124    48124
   
  number of gridpoints: 
     atom       C43      C44      C45      C46      C47      C48      C49
  grid # 1       97       95       95       92       94       93       94
  grid # 2      339      337      334      332      331      331      336
  grid # 3       34       40       19       19       27       28       45
  grid # 4    48124    48124    48124    48124    48124    48124    48124
   
  number of gridpoints: 
     atom       C50      C51      C52      C53      C54      C55      C56
  grid # 1       94       94       94       94       94       93       94
  grid # 2      336      337      335      333      334      332      334
  grid # 3       46       43       28       29       30       26       29
  grid # 4    48124    48124    48124    48124    48124    48124    48124
   
  number of gridpoints: 
     atom       C57      C58      C59      C60      C61      C62      C63
  grid # 1       92       93       94       94       94       94       93
  grid # 2      330      335      335      336      336      335      335
  grid # 3       19       32       44       45       47       46       30
  grid # 4    48124    48124    48124    48124    48124    48124    48124
   
  number of gridpoints: 
     atom       C64      C65      C66      C67      C68      C69      C70
  grid # 1       95       95       98       95       95       95       91
  grid # 2      331      334      356      327      330      330      322
  grid # 3       28       21       16        8       15       24        6
  grid # 4    48124    48124    48124    48124    48124    48124    48124
   
  number of gridpoints: 
     atom       N71      S72      O73      O74      C75      C76      C77
  grid # 1       98      441      122      120       98       96       96
  grid # 2      353      441      491      473      357      326      330
  grid # 3       11       13      233       95       32       35       37
  grid # 4    47928    48492    47716    47716    48124    48124    48124
   
  number of gridpoints: 
     atom       C78      C79      N80      N81      C82      C83      C84
  grid # 1       96       96      112       96       94       93       94
  grid # 2      330      336      418      347      328      330      330
  grid # 3       32       29       97       13       11       18       21
  grid # 4    48124    48124    47928    47928    48124    48124    48124
   
  number of gridpoints: 
     atom       C85      H86      H87      H88      H89      H90      H91
  grid # 1       92      112      118      117      108      118      114
  grid # 2      322      433      451      446      428      453      434
  grid # 3        8      229      420      358      192      425      247
  grid # 4    48124    48426    48426    48426    48426    48426    48426
   
  number of gridpoints: 
     atom       H92      H93      H94      H95      H96      H97      H98
  grid # 1      109      118      118      118      112      112      111
  grid # 2      424      443      449      451      426      425      430
  grid # 3      154      361      410      418      221      194      225
  grid # 4    48426    48426    48426    48426    48426    48426    48426
   
  number of gridpoints: 
     atom       H99     H100     H101     H102     H103     H104     H105
  grid # 1      109      106      110      108      109      111      112
  grid # 2      425      411      425      421      428      434      433
  grid # 3      191       86      192      156      183      223      262
  grid # 4    48426    48426    48426    48426    48426    48426    48426
   
  number of gridpoints: 
     atom      H106     H107     H108     H109     H110     H111     H112
  grid # 1      111      105      117      117      114      118      118
  grid # 2      431      401      449      448      445      452      453
  grid # 3      230       40      367      363      312      417      425
  grid # 4    48426    48426    48426    48426    48426    48426    48426
   
  number of gridpoints: 
     atom      H113     H114     H115     H116     H117     H118     H119
  grid # 1      118      111      117      117      114      113      116
  grid # 2      452      431      451      452      440      437      443
  grid # 3      418      221      384      398      261      253      313
  grid # 4    48426    48426    48426    48426    48426    48426    48426
   
  number of gridpoints: 
     atom      H120     H121     H122     H123     H124     H125     H126
  grid # 1      118      118      118      118      118      110      118
  grid # 2      452      453      453      452      452      435      449
  grid # 3      410      424      425      417      412      222      409
  grid # 4    48426    48426    48426    48426    48426    48426    48426
   
  number of gridpoints: 
     atom      H127     H128     H129     H130     H131     H132     H133
  grid # 1      111      105      109      117      104      112      117
  grid # 2      438      406      420      449      408      430      453
  grid # 3      284       57      140      408      100      217      409
  grid # 4    48426    48426    48426    48426    48426    48426    48426
   
  number of gridpoints: 
     atom      H134     H135     H136     H137     H138     H139     H140
  grid # 1      117      117       99      111      116      116      107
  grid # 2      451      453      396      434      458      456      418
  grid # 3      404      407       55      195      418      393      110
  grid # 4    48426    48426    48426    48426    48426    48426    48426
   
  number of gridpoints: 
     atom      S141     O142     C143     O144     F145     F146     F147
  grid # 1      437      117       90      118      506      522      534
  grid # 2      437      470      321      472      506      522      534
  grid # 3       10       64        7       95       50      166      262
  grid # 4    48492    47716    48124    47716    47062    47062    47062
   
  number of gridpoints: 
     atom      H148    total
  grid # 1      103    18384
  grid # 2      405    57831
  grid # 3       73    19062
  grid # 4    48426  7104526
   
  Peak memory usage:    795 Mb
  
  end of program grid
   
 Time(grid)  user:     1154.4  user+sys:     1154.4  wallclock:     4738.0
  
  start of program rwr
  
  Peak memory usage:    814 Mb
  
  end of program rwr
   
 Time(rwr)  user:       71.8  user+sys:       71.8  wallclock:      291.6
  
  start of program scf
  
 number of electrons..........        680
 number of alpha electrons....        340
 number of beta electrons.....        340
 number of orbitals, total....       1673
 number of doubly-occ'd orbs..        340
 number of open shell orbs....          0
 number of occupied orbitals..        340
 number of virtual orbitals...       1333
 number of hamiltonians.......          1
 number of shells.............          1
 SCF type: DFT=M06-2X
 Energy computed with NOPS off.
  
       i  u  d  i  g                   
       t  p  i  c  r                                 RMS    maximum
       e  d  i  u  i                       energy  density   DIIS  
       r  t  s  t  d       total energy    change  change    error 
  
etot    1  N  N  1  U   -5562.73187240095           3.7E-03  1.2E-01
etot    2  N  Y  1  U   -5531.57993914263 -3.1E+01  1.4E-02  1.4E-01
etot    3  N  Y  1  U   -5309.03107137786 -2.2E+02  1.4E-02  3.4E-01
etot    4  N  Y  1  U   -5570.33367760785  2.6E+02  2.3E-03  8.3E-02
etot    5  N  Y  1  U   -5573.22833082103  2.9E+00  1.5E-03  3.6E-02
etot    6  N  Y  1  U   -5572.86708556624 -3.6E-01  9.8E-04  4.1E-02
etot    7  N  Y  1  U   -5575.45761588768  2.6E+00  2.4E-04  1.1E-02
etot    8  N  Y  1  U   -5575.54260343327  8.5E-02  9.2E-05  3.7E-03
etot    9  N  Y  1  U   -5575.55097446256  8.4E-03  4.3E-05  1.5E-03
etot   10  N  Y  1  U   -5575.55397815149  3.0E-03  1.9E-05  9.6E-04
etot   11  N  Y  1  U   -5575.55459332359  6.2E-04  1.2E-05  4.6E-04
etot   12  N  Y  1  U   -5575.55480574954  2.1E-04  5.5E-06  1.7E-04
etot   13  N  N  1  U   -5575.55484032179  3.5E-05  0.0E+00  0.0E+00
  
  
 Energy components, in hartrees:
   (A)  Nuclear repulsion............   20980.00981404488
   (E)  Total one-electron terms.....  -49489.60011495529
   (F)    Electron-nuclear...........  -55025.58943189563
   (H)    Kinetic....................    5535.98931694034
   (I)  Total two-electron terms.....   22934.03546058862
   (J)    Coulomb....................   23585.28960617081
   (K)    Exchange+Correlation.......    -651.25414558219
   (L)  Electronic energy............  -26555.56465436667  (E+I)
   (M)  -V/T.........................       2.00714696527  (-(A+F+I)/H)
   (N)  Total energy.................   -5575.55484032179  (A+L)
   (O)  Gas phase energy.............   -5575.55484032179
  
 SCFE: SCF energy: DFT(m06-2x)     -5575.55484032179 hartrees   iterations:  13
  
 
 HOMO energy:    -0.24221
 LUMO energy:    -0.06742
 
  Orbital energies (hartrees): 
   -90.17001   -90.13491   -78.20845   -67.00787   -67.00421   -25.27008
   -25.26677   -25.26669   -19.68868   -19.68700   -19.65198   -19.65058
   -19.60829   -19.60789   -19.60755   -14.82587   -14.81772   -14.78985
   -14.73783   -10.78525   -10.66273   -10.62916   -10.62117   -10.61758
   -10.61391   -10.60826   -10.60809   -10.58876   -10.58577   -10.58414
   -10.58310   -10.58293   -10.57686   -10.57343   -10.57248   -10.57218
   -10.57038   -10.56716   -10.56667   -10.56381   -10.55805   -10.55772
   -10.55659   -10.55499   -10.55446   -10.55421   -10.55191   -10.55001
   -10.54852   -10.54850   -10.54802   -10.54796   -10.54793   -10.54789
   -10.54768   -10.54753   -10.54739   -10.54724   -10.54688   -10.54683
   -10.54603   -10.54594   -10.54542   -10.54529   -10.54497   -10.54420
   -10.54378   -10.54337   -10.54268   -10.54259   -10.54214   -10.54194
   -10.54145   -10.53992   -10.53906   -10.53808   -10.53760   -10.53698
   -10.53610   -10.53566   -10.53558   -10.53518   -10.53454   -10.53372
   -10.53291   -10.53163   -10.53080   -10.53017   -10.52925   -10.52842
   -10.52459   -10.52007    -8.48046    -8.44386    -6.98771    -6.40280
    -6.40175    -6.40069    -6.36573    -6.36534    -6.36511    -5.53870
    -5.53474    -5.10596    -5.10534    -5.10364    -3.84856    -3.84819
    -3.84794    -3.84449    -3.84426    -3.84412    -1.43584    -1.34529
    -1.34295    -1.24540    -1.22411    -1.20102    -1.18195    -1.13339
    -1.11763    -1.09100    -1.08756    -1.08200    -1.06267    -0.97844
    -0.97804    -0.96883    -0.95807    -0.94601    -0.94086    -0.94063
    -0.93761    -0.92985    -0.92796    -0.92382    -0.91553    -0.90445
    -0.90136    -0.89666    -0.88236    -0.88123    -0.85957    -0.84789
    -0.84596    -0.84254    -0.83869    -0.83633    -0.83370    -0.83181
    -0.83050    -0.82862    -0.82666    -0.82279    -0.82268    -0.82181
    -0.81997    -0.81807    -0.81679    -0.81588    -0.80587    -0.80253
    -0.79176    -0.76220    -0.74957    -0.73768    -0.71592    -0.71434
    -0.70252    -0.69905    -0.69839    -0.69550    -0.69317    -0.68941
    -0.68351    -0.67869    -0.67588    -0.67341    -0.67283    -0.67260
    -0.67121    -0.66990    -0.66638    -0.66489    -0.66146    -0.66078
    -0.66021    -0.65858    -0.65637    -0.65593    -0.65167    -0.65058
    -0.64454    -0.64117    -0.63396    -0.62220    -0.61894    -0.60723
    -0.60559    -0.59929    -0.59387    -0.58100    -0.58047    -0.57781
    -0.57491    -0.57180    -0.57163    -0.57107    -0.56990    -0.56683
    -0.56557    -0.55528    -0.55411    -0.54814    -0.54627    -0.54335
    -0.53946    -0.53719    -0.53670    -0.53586    -0.53393    -0.53215
    -0.53042    -0.52156    -0.51952    -0.51810    -0.51650    -0.51453
    -0.51311    -0.51301    -0.51006    -0.50803    -0.50750    -0.50520
    -0.50461    -0.50238    -0.50085    -0.49929    -0.49891    -0.49873
    -0.49662    -0.49508    -0.49245    -0.49216    -0.49076    -0.48964
    -0.48804    -0.48669    -0.48639    -0.48477    -0.48385    -0.48258
    -0.48144    -0.48078    -0.47878    -0.47806    -0.47794    -0.47676
    -0.47670    -0.47009    -0.46887    -0.46741    -0.46242    -0.46051
    -0.45693    -0.45086    -0.44887    -0.44652    -0.44637    -0.44357
    -0.44191    -0.43995    -0.43562    -0.43136    -0.42945    -0.42769
    -0.42378    -0.42184    -0.42022    -0.41804    -0.41690    -0.41592
    -0.41547    -0.41326    -0.41002    -0.40840    -0.40380    -0.39934
    -0.39868    -0.39768    -0.39501    -0.39310    -0.39292    -0.39115
    -0.39003    -0.38693    -0.38540    -0.38437    -0.38386    -0.37908
    -0.37716    -0.37524    -0.37150    -0.36742    -0.36592    -0.36146
    -0.35608    -0.34930    -0.34798    -0.34692    -0.34407    -0.34270
    -0.34068    -0.33834    -0.33691    -0.33562    -0.33280    -0.32968
    -0.32703    -0.32301    -0.32044    -0.31877    -0.31565    -0.30242
    -0.30064    -0.29884    -0.29833    -0.29664    -0.29600    -0.29425
    -0.29197    -0.29064    -0.28605    -0.28587    -0.28423    -0.27945
    -0.27833    -0.27256    -0.26545    -0.24221    -0.06742    -0.01731
    -0.01126     0.00169     0.00417     0.01186     0.01571     0.01699
     0.01978     0.02226
 
  Peak memory usage:   1028 Mb
  
  end of program scf
   
 Time(scf)  user:    33310.6  user+sys:    33310.6  wallclock:   137411.6
  
  start of program ch
  
  gridpoints used for charge fit        16547
    out of a possible maximum of        19062
  
   Electrostatic potential fitting constrained to reproduce
     total charge:                yes
     dipole moment:               no 
     traceless quadrupole moment: no 
     traceless octapole moment:   no 
  
  Atomic charges from electrostatic potential: 
   
 Atom       C1           C2           C3           C4           C5      
 Charge   -0.10185     -0.00426     -0.17475      0.21111     -0.04699
   
 Atom       C6           C7           C8           C9           C10     
 Charge   -0.23209     -0.34926     -0.10675      0.17352     -0.05870
   
 Atom       C11          O12          Si13         C14          C15     
 Charge    0.02107     -0.21675     -0.04913     -0.00650      0.17643
   
 Atom       C16          C17          C18          C19          C20     
 Charge    0.41483     -0.10147     -0.55114     -0.32209      0.14010
   
 Atom       Si21         O22          C23          C24          P25     
 Charge   -0.31143     -0.23936     -0.19961     -0.07429      0.63973
   
 Atom       O26          N27          C28          C29          C30     
 Charge   -0.52522     -0.43825      0.15944      0.11292      0.04992
   
 Atom       C31          C32          C33          C34          C35     
 Charge    0.35302      0.16931      0.15276     -0.07258     -0.18522
   
 Atom       C36          C37          C38          C39          C40     
 Charge   -0.15292     -0.18317     -0.01808     -0.22589     -0.14057
   
 Atom       C41          C42          C43          C44          C45     
 Charge   -0.31921     -0.07903     -0.21643     -0.16469     -0.12198
   
 Atom       C46          C47          C48          C49          C50     
 Charge   -0.19351     -0.10625     -0.16412     -0.13289     -0.14029
   
 Atom       C51          C52          C53          C54          C55     
 Charge   -0.11194     -0.17964     -0.11312     -0.10540     -0.25072
   
 Atom       C56          C57          C58          C59          C60     
 Charge   -0.05657     -0.07463     -0.21055     -0.11229     -0.12007
   
 Atom       C61          C62          C63          C64          C65     
 Charge   -0.13696     -0.17859     -0.05588     -0.16091     -0.20923
   
 Atom       C66          C67          C68          C69          C70     
 Charge    0.23609      0.01638     -0.10992     -0.15592     -0.23985
   
 Atom       N71          S72          O73          O74          C75     
 Charge   -0.22071      0.63451     -0.42181     -0.39569      0.50804
   
 Atom       C76          C77          C78          C79          N80     
 Charge   -0.35781      0.16575     -0.43279      0.37372     -0.57682
   
 Atom       N81          C82          C83          C84          C85     
 Charge    0.01660     -0.08976     -0.17400     -0.26498      0.05911
   
 Atom       H86          H87          H88          H89          H90     
 Charge    0.09984      0.14707      0.14417      0.17905      0.13202
   
 Atom       H91          H92          H93          H94          H95     
 Charge    0.11723      0.22110      0.16325      0.14691      0.12470
   
 Atom       H96          H97          H98          H99          H100    
 Charge    0.10484      0.14598      0.09913      0.13328     -0.02141
   
 Atom       H101         H102         H103         H104         H105    
 Charge    0.15348      0.08059      0.20706      0.12278      0.12207
   
 Atom       H106         H107         H108         H109         H110    
 Charge    0.11624      0.08888      0.13202      0.12060      0.14269
   
 Atom       H111         H112         H113         H114         H115    
 Charge    0.13097      0.13021      0.12567      0.13789      0.13181
   
 Atom       H116         H117         H118         H119         H120    
 Charge    0.12913      0.15445      0.08813      0.11055      0.14104
   
 Atom       H121         H122         H123         H124         H125    
 Charge    0.12842      0.13223      0.13505      0.13564      0.08292
   
 Atom       H126         H127         H128         H129         H130    
 Charge    0.15564      0.15493      0.04165      0.10032      0.15393
   
 Atom       H131         H132         H133         H134         H135    
 Charge    0.19131      0.18052      0.11189      0.18816      0.05687
   
 Atom       H136         H137         H138         H139         H140    
 Charge    0.27712      0.17265      0.17022      0.20416      0.13261
   
 Atom       S141         O142         C143         O144         F145    
 Charge    0.67419     -0.43812      0.39703     -0.44390     -0.08773
   
 Atom       F146         F147         H148    
 Charge   -0.14125     -0.13584      0.22484
  
  sum of atomic charges:    -0.000000
   
 RMS Error   9.84E-04 hartrees
 
  Peak memory usage:    816 Mb
  
  end of program ch
   
 Time(ch)  user:       18.4  user+sys:       18.4  wallclock:       85.1
  
  start of program post
  
  Writing input files for PBF
  Peak memory usage:    759 Mb
  
  end of program post
   
 Time(post)  user:        0.8  user+sys:        0.8  wallclock:        3.8

  start of program pbf

Pbf Version 4.10

Molecular surface area:      827.48922   [A2]
Reaction field energy:       -17.66648   [kT]
  Peak memory usage: 721 Mb

  end of program pbf

 Time(pbf)  user:       13.3  user+sys:       13.4  wallclock:       49.5
  
  start of program solv
  
   number of surface charges from PBF   13538
   sum of surface charges     -0.00036
   
  nuclear repulsion energy.......   20980.009814045 hartrees
  Peak memory usage:    894 Mb
  
  end of program solv
   
 Time(solv)  user:       36.4  user+sys:       36.4  wallclock:      138.7
  
  start of program scf
  
 Energy computed with NOPS off.
  
       i  u  d  i  g                   
       t  p  i  c  r                                 RMS    maximum
       e  d  i  u  i                       energy  density   DIIS  
       r  t  s  t  d       total energy    change  change    error 
  
etot    1  N  N  1  U   -5575.59189388249           5.2E-05  8.0E-04
etot    2  N  Y  1  U   -5575.59269185952  8.0E-04  1.6E-05  6.0E-04
etot    3  N  Y  1  U   -5575.59293520802  2.4E-04  5.2E-06  2.7E-04
etot    4  N  N  1  U   -5575.59298273314  4.8E-05  0.0E+00  0.0E+00
  
  
 Energy components, in hartrees:
   (A)  Total zero-electron terms....   20983.19050110262
   (B)    Nuclear-nuclear............   20980.00981404488
   (C)    Nuclear-solvent............       3.18068705774
   (E)  Total one-electron terms.....  -49494.52240571787
   (F)    Electron-nuclear...........  -55027.33208545620
   (G)    Electron-solvent...........      -3.21988558939
   (H)    Kinetic....................    5536.02956532772
   (I)  Total two-electron terms.....   22935.73892188211
   (J)    Coulomb....................   23587.01110768660
   (K)    Exchange+Correlation.......    -651.27218580448
   (L)  Electronic energy............  -26558.78348383576  (E+I)
   (N)  Total quantum mech. energy...   -5575.59298273314  (A+L)
   (O)  Gas phase energy.............   -5575.55484032179
   (P)  Solution phase energy........   -5575.57338346731  (Q+R+S)
   (Q)    Total solute energy........   -5575.55378420149  (N-C-G)
   (R)    Total solvent energy.......      -0.01959926583  (C/2+G/2)
   (S)    Solute cavity energy.......       0.00000000000
   (U)  Reorganization energy........       0.00105612031  (Q-O)
   (V)  Solvation energy.............      -0.01854314552  (P-O)
  
 SCFE:  Solution phase energy: DFT(m06-2x)      -5575.57338346731 hartrees
        SCF iterations:   4
  
 
 HOMO energy:    -0.24604
 LUMO energy:    -0.06536
 
  Orbital energies (hartrees): 
   -90.17400   -90.14060   -78.21145   -67.01080   -67.00750   -25.27804
   -25.27384   -25.27321   -19.69169   -19.69037   -19.65664   -19.65513
   -19.61464   -19.61260   -19.60993   -14.82263   -14.81878   -14.78826
   -14.74284   -10.79189   -10.66046   -10.62829   -10.62104   -10.61978
   -10.61735   -10.60611   -10.60477   -10.58423   -10.58300   -10.58081
   -10.58018   -10.57818   -10.57308   -10.57112   -10.56987   -10.56904
   -10.56860   -10.56640   -10.56640   -10.56420   -10.56143   -10.56059
   -10.55941   -10.55876   -10.55482   -10.55448   -10.55233   -10.55222
   -10.55188   -10.55122   -10.55100   -10.55084   -10.55054   -10.55043
   -10.55032   -10.55004   -10.54969   -10.54939   -10.54913   -10.54894
   -10.54882   -10.54876   -10.54794   -10.54793   -10.54765   -10.54654
   -10.54653   -10.54577   -10.54561   -10.54551   -10.54549   -10.54516
   -10.54508   -10.54347   -10.54243   -10.54182   -10.54093   -10.54093
   -10.53958   -10.53928   -10.53900   -10.53846   -10.53693   -10.53657
   -10.53625   -10.53475   -10.53392   -10.53359   -10.53317   -10.53160
   -10.52839   -10.52311    -8.48436    -8.44955    -6.99074    -6.40667
    -6.40574    -6.40454    -6.37140    -6.37103    -6.37082    -5.54162
    -5.53803    -5.10900    -5.10838    -5.10665    -3.85149    -3.85111
    -3.85088    -3.84777    -3.84756    -3.84741    -1.44294    -1.35256
    -1.34991    -1.24981    -1.22744    -1.20684    -1.18526    -1.13831
    -1.11556    -1.09364    -1.09275    -1.08051    -1.06317    -0.98208
    -0.97543    -0.97294    -0.96161    -0.94735    -0.94403    -0.94355
    -0.94067    -0.93398    -0.93136    -0.92041    -0.91877    -0.90508
    -0.90137    -0.89495    -0.88467    -0.87979    -0.85657    -0.84919
    -0.84586    -0.84405    -0.84174    -0.83761    -0.83623    -0.83470
    -0.83327    -0.83170    -0.82922    -0.82599    -0.82563    -0.82533
    -0.82318    -0.82140    -0.82047    -0.81906    -0.81217    -0.80177
    -0.79521    -0.76080    -0.75355    -0.73442    -0.72012    -0.71283
    -0.70546    -0.70134    -0.69747    -0.69653    -0.69262    -0.68782
    -0.68622    -0.68007    -0.67607    -0.67521    -0.67480    -0.67385
    -0.67356    -0.67200    -0.66978    -0.66764    -0.66687    -0.66564
    -0.66371    -0.66277    -0.65891    -0.65854    -0.65390    -0.65045
    -0.64444    -0.64382    -0.63729    -0.62245    -0.61969    -0.60877
    -0.60778    -0.60179    -0.59670    -0.58235    -0.58009    -0.57933
    -0.57744    -0.57470    -0.57321    -0.57153    -0.56998    -0.56846
    -0.56768    -0.55771    -0.55668    -0.55055    -0.54626    -0.54367
    -0.54344    -0.54091    -0.53859    -0.53781    -0.53501    -0.53337
    -0.53162    -0.52405    -0.51956    -0.51936    -0.51796    -0.51659
    -0.51574    -0.51375    -0.51273    -0.51101    -0.50923    -0.50895
    -0.50533    -0.50460    -0.50439    -0.50265    -0.50156    -0.50141
    -0.49916    -0.49786    -0.49473    -0.49279    -0.49211    -0.49130
    -0.48973    -0.48924    -0.48685    -0.48585    -0.48510    -0.48430
    -0.48339    -0.48237    -0.48053    -0.48018    -0.47881    -0.47831
    -0.47527    -0.47249    -0.47094    -0.47006    -0.46396    -0.46002
    -0.45734    -0.45277    -0.44980    -0.44870    -0.44672    -0.44613
    -0.44425    -0.44191    -0.43922    -0.43397    -0.43083    -0.42733
    -0.42621    -0.42489    -0.42286    -0.42167    -0.41969    -0.41894
    -0.41656    -0.41419    -0.41319    -0.41227    -0.40774    -0.40228
    -0.40197    -0.40013    -0.39836    -0.39580    -0.39485    -0.39285
    -0.39249    -0.38939    -0.38807    -0.38736    -0.38637    -0.38223
    -0.38059    -0.37846    -0.37469    -0.37121    -0.36923    -0.36278
    -0.35766    -0.35260    -0.35159    -0.34682    -0.34573    -0.34425
    -0.34137    -0.34085    -0.33958    -0.33635    -0.33563    -0.33251
    -0.33126    -0.32672    -0.32055    -0.31828    -0.31620    -0.30317
    -0.30283    -0.30208    -0.30187    -0.30002    -0.29965    -0.29738
    -0.29542    -0.29059    -0.28992    -0.28932    -0.28753    -0.28370
    -0.28201    -0.27622    -0.26914    -0.24604    -0.06536    -0.01549
    -0.01499     0.00063     0.00446     0.01245     0.01507     0.01666
     0.01821     0.01940
 
  Peak memory usage:   1029 Mb
  
  end of program scf
   
 Time(scf)  user:     7686.9  user+sys:     7686.9  wallclock:    31906.2
  
  start of program sole
  
    SCRF                   solvation energy
  iteration          Hartrees            kcal/mol
     0               0.0000000            0.0000
     1              -0.0185431          -11.6360
  
  solvation energy not yet converged... 
  
  Peak memory usage:    813 Mb
  
  end of program sole
   
 Time(sole)  user:        0.2  user+sys:        0.2  wallclock:        0.6
  
  start of program ch
  
  gridpoints used for charge fit        16547
    out of a possible maximum of        16547
  
   Electrostatic potential fitting constrained to reproduce
     total charge:                yes
     dipole moment:               no 
     traceless quadrupole moment: no 
     traceless octapole moment:   no 
  
  Atomic charges from electrostatic potential: 
   
 Atom       C1           C2           C3           C4           C5      
 Charge   -0.10413     -0.00645     -0.18315      0.21327     -0.04517
   
 Atom       C6           C7           C8           C9           C10     
 Charge   -0.24139     -0.36249     -0.11212      0.16587     -0.06507
   
 Atom       C11          O12          Si13         C14          C15     
 Charge    0.03854     -0.20899     -0.07389     -0.00254      0.16662
   
 Atom       C16          C17          C18          C19          C20     
 Charge    0.41909     -0.10452     -0.56512     -0.33352      0.15968
   
 Atom       Si21         O22          C23          C24          P25     
 Charge   -0.32545     -0.23007     -0.20804     -0.07884      0.61903
   
 Atom       O26          N27          C28          C29          C30     
 Charge   -0.51219     -0.42060      0.17446      0.11291      0.05960
   
 Atom       C31          C32          C33          C34          C35     
 Charge    0.35875      0.16066      0.15369     -0.07454     -0.20411
   
 Atom       C36          C37          C38          C39          C40     
 Charge   -0.15489     -0.18887     -0.02388     -0.23790     -0.13993
   
 Atom       C41          C42          C43          C44          C45     
 Charge   -0.31433     -0.06967     -0.21495     -0.16850     -0.12048
   
 Atom       C46          C47          C48          C49          C50     
 Charge   -0.19780     -0.11815     -0.16283     -0.14196     -0.14705
   
 Atom       C51          C52          C53          C54          C55     
 Charge   -0.11774     -0.18763     -0.12124     -0.11126     -0.26405
   
 Atom       C56          C57          C58          C59          C60     
 Charge   -0.05321     -0.08758     -0.22140     -0.11666     -0.13138
   
 Atom       C61          C62          C63          C64          C65     
 Charge   -0.14565     -0.18646     -0.05437     -0.16693     -0.21030
   
 Atom       C66          C67          C68          C69          C70     
 Charge    0.24107      0.01408     -0.11716     -0.15665     -0.24888
   
 Atom       N71          S72          O73          O74          C75     
 Charge   -0.20870      0.64243     -0.44335     -0.40604      0.51238
   
 Atom       C76          C77          C78          C79          N80     
 Charge   -0.36157      0.17047     -0.43751      0.38275     -0.59999
   
 Atom       N81          C82          C83          C84          C85     
 Charge    0.01883     -0.08029     -0.17885     -0.26483      0.05002
   
 Atom       H86          H87          H88          H89          H90     
 Charge    0.10164      0.15593      0.15119      0.18635      0.14058
   
 Atom       H91          H92          H93          H94          H95     
 Charge    0.11955      0.22712      0.17078      0.15485      0.13221
   
 Atom       H96          H97          H98          H99          H100    
 Charge    0.10768      0.14911      0.09949      0.13917     -0.01685
   
 Atom       H101         H102         H103         H104         H105    
 Charge    0.16002      0.08197      0.20620      0.12567      0.11934
   
 Atom       H106         H107         H108         H109         H110    
 Charge    0.11698      0.08302      0.13895      0.13116      0.14745
   
 Atom       H111         H112         H113         H114         H115    
 Charge    0.13924      0.13823      0.13331      0.14299      0.13753
   
 Atom       H116         H117         H118         H119         H120    
 Charge    0.13640      0.16030      0.09184      0.11555      0.14911
   
 Atom       H121         H122         H123         H124         H125    
 Charge    0.13612      0.14088      0.14313      0.14339      0.08663
   
 Atom       H126         H127         H128         H129         H130    
 Charge    0.16422      0.16093      0.04230      0.10117      0.16078
   
 Atom       H131         H132         H133         H134         H135    
 Charge    0.19513      0.17959      0.12093      0.19756      0.06336
   
 Atom       H136         H137         H138         H139         H140    
 Charge    0.26750      0.17572      0.17881      0.21339      0.13512
   
 Atom       S141         O142         C143         O144         F145    
 Charge    0.66814     -0.43362      0.39754     -0.45712     -0.08212
   
 Atom       F146         F147         H148    
 Charge   -0.14422     -0.13911      0.21894
  
  sum of atomic charges:    -0.000000
   
 RMS Error   9.95E-04 hartrees
 
  Peak memory usage:    816 Mb
  
  end of program ch
   
 Time(ch)  user:       18.0  user+sys:       18.0  wallclock:       75.1
  
  start of program post
  
  Writing input files for PBF
  Peak memory usage:    759 Mb
  
  end of program post
   
 Time(post)  user:        0.8  user+sys:        0.8  wallclock:        3.7

  start of program pbf

Pbf Version 4.10

Molecular surface area:      827.48922   [A2]
Reaction field energy:       -20.17352   [kT]
  Peak memory usage: 721 Mb

  end of program pbf

 Time(pbf)  user:       14.1  user+sys:       14.3  wallclock:       61.0
  
  start of program solv
  
   number of surface charges from PBF   13538
   sum of surface charges     -0.00037
   
  nuclear repulsion energy.......   20980.009814045 hartrees
  Peak memory usage:    894 Mb
  
  end of program solv
   
 Time(solv)  user:       37.0  user+sys:       37.0  wallclock:      143.7
  
  start of program scf
  
 Energy computed with NOPS off.
  
       i  u  d  i  g                   
       t  p  i  c  r                                 RMS    maximum
       e  d  i  u  i                       energy  density   DIIS  
       r  t  s  t  d       total energy    change  change    error 
  
etot    1  N  N  1  U   -5575.59565564706           6.4E-06  1.1E-04
etot    2  N  N  1  U   -5575.59566458553  8.9E-06  0.0E+00  0.0E+00
  
  
 Energy components, in hartrees:
   (A)  Total zero-electron terms....   20983.52904247574
   (B)    Nuclear-nuclear............   20980.00981404488
   (C)    Nuclear-solvent............       3.51922843086
   (E)  Total one-electron terms.....  -49495.02248327955
   (F)    Electron-nuclear...........  -55027.53716945687
   (G)    Electron-solvent...........      -3.56139411985
   (H)    Kinetic....................    5536.07608029717
   (I)  Total two-electron terms.....   22935.89777621828
   (J)    Coulomb....................   23587.17781045177
   (K)    Exchange+Correlation.......    -651.28003423349
   (L)  Electronic energy............  -26559.12470706127  (E+I)
   (N)  Total quantum mech. energy...   -5575.59566458553  (A+L)
   (O)  Gas phase energy.............   -5575.55484032179
   (P)  Solution phase energy........   -5575.57458174104  (Q+R+S)
   (Q)    Total solute energy........   -5575.55349889655  (N-C-G)
   (R)    Total solvent energy.......      -0.02108284449  (C/2+G/2)
   (S)    Solute cavity energy.......       0.00000000000
   (U)  Reorganization energy........       0.00134142524  (Q-O)
   (V)  Solvation energy.............      -0.01974141925  (P-O)
  
 SCFE:  Solution phase energy: DFT(m06-2x)      -5575.57458174104 hartrees
        SCF iterations:   2
  
 
 HOMO energy:    -0.27164
 LUMO energy:    -0.06569
 
  Orbital energies (hartrees): 
   -82.92979   -70.15446   -67.89203   -65.03505   -58.87456   -43.90618
   -31.54101   -27.79206   -24.88422   -22.82679   -22.25156   -16.11325
   -15.19385   -14.38086   -14.18708   -13.89388   -13.87471   -13.49531
   -12.94064   -12.64266   -11.82016   -11.57571   -11.52968   -11.52316
   -11.28722   -11.13420   -10.71169   -10.69727   -10.69273   -10.68804
   -10.67193   -10.64548   -10.64424   -10.62297   -10.61374   -10.60128
   -10.57519   -10.56406   -10.55508   -10.54684   -10.54487   -10.54003
   -10.53987   -10.53947   -10.53588   -10.53459   -10.53444   -10.53414
   -10.53318   -10.52884   -10.52596   -10.52586   -10.52378   -10.52001
   -10.51690   -10.51436   -10.51372   -10.51346   -10.49587   -10.49583
   -10.49212   -10.48672   -10.47901   -10.47852   -10.47046   -10.46515
   -10.46388   -10.45827   -10.45346   -10.44522   -10.43763   -10.43031
   -10.41987   -10.41447   -10.41229   -10.38601   -10.37584   -10.35133
   -10.34108   -10.31234   -10.24395   -10.16908   -10.11254   -10.10164
   -10.10025   -10.09932   -10.06736   -10.04949   -10.01093   -10.00770
    -9.28633    -9.10848    -8.89129    -8.57356    -8.34212    -8.13597
    -8.08477    -8.03216    -8.02294    -7.58050    -7.31466    -7.20683
    -7.15822    -7.10610    -6.96434    -6.88955    -6.86777    -6.85814
    -6.68403    -6.41216    -6.15148    -4.34405    -1.46766    -1.39004
    -1.31502    -1.23696    -1.18521    -1.08449    -1.00410    -0.95470
    -0.95174    -0.94241    -0.93360    -0.92718    -0.92319    -0.91867
    -0.91824    -0.89256    -0.87909    -0.87322    -0.87282    -0.86101
    -0.85928    -0.85166    -0.85127    -0.84112    -0.84027    -0.83810
    -0.83282    -0.83180    -0.82915    -0.81635    -0.81600    -0.81414
    -0.81119    -0.81100    -0.80171    -0.79781    -0.79207    -0.79069
    -0.78651    -0.78176    -0.77662    -0.77415    -0.76864    -0.76434
    -0.76375    -0.75268    -0.75054    -0.74634    -0.74325    -0.74310
    -0.74035    -0.74017    -0.73124    -0.72526    -0.71878    -0.71663
    -0.71346    -0.70517    -0.70041    -0.69905    -0.69666    -0.68022
    -0.67436    -0.66946    -0.66715    -0.66206    -0.66127    -0.65706
    -0.65482    -0.65448    -0.65110    -0.63946    -0.63736    -0.63208
    -0.63034    -0.63031    -0.62969    -0.62563    -0.62449    -0.62145
    -0.62140    -0.61767    -0.61432    -0.61263    -0.61221    -0.60453
    -0.59909    -0.59839    -0.59749    -0.59598    -0.59427    -0.59081
    -0.58419    -0.58172    -0.57541    -0.57429    -0.57234    -0.56923
    -0.56651    -0.56643    -0.55859    -0.55743    -0.55673    -0.55630
    -0.55574    -0.55121    -0.55029    -0.54913    -0.54491    -0.54395
    -0.53922    -0.53890    -0.53846    -0.53762    -0.53620    -0.53566
    -0.53430    -0.53398    -0.52923    -0.52772    -0.52765    -0.52762
    -0.52707    -0.52537    -0.52521    -0.52183    -0.52124    -0.51983
    -0.51815    -0.51789    -0.51778    -0.51621    -0.51614    -0.51586
    -0.51569    -0.51416    -0.50484    -0.50251    -0.50148    -0.50141
    -0.50096    -0.50020    -0.49968    -0.49825    -0.49531    -0.49234
    -0.49150    -0.49145    -0.48594    -0.48428    -0.48384    -0.48343
    -0.48326    -0.48289    -0.48280    -0.48205    -0.48062    -0.48057
    -0.47988    -0.47605    -0.47247    -0.47196    -0.47150    -0.46903
    -0.46878    -0.46447    -0.46208    -0.46204    -0.46170    -0.46155
    -0.45981    -0.45857    -0.45741    -0.45592    -0.45472    -0.45437
    -0.45290    -0.45266    -0.45158    -0.45132    -0.44884    -0.44844
    -0.44810    -0.44594    -0.44468    -0.44329    -0.44171    -0.44091
    -0.43913    -0.43828    -0.43730    -0.43711    -0.43599    -0.43524
    -0.43450    -0.43199    -0.43133    -0.43101    -0.42734    -0.41969
    -0.41902    -0.41693    -0.41270    -0.41253    -0.40709    -0.40589
    -0.40344    -0.40209    -0.39669    -0.38832    -0.38740    -0.38472
    -0.38304    -0.37769    -0.37669    -0.37614    -0.37533    -0.37430
    -0.37031    -0.36906    -0.36559    -0.35784    -0.35782    -0.35699
    -0.35204    -0.34681    -0.34415    -0.27164    -0.06569    -0.01565
    -0.01538     0.00015     0.00474     0.01211     0.01489     0.01633
     0.01808     0.01914
 
  Peak memory usage:   1029 Mb
  
  end of program scf
   
 Time(scf)  user:     2552.1  user+sys:     2552.1  wallclock:    10600.1
  
  start of program sole
  
    SCRF                   solvation energy
  iteration          Hartrees            kcal/mol
     0               0.0000000            0.0000
     1              -0.0185431          -11.6360
     2              -0.0197414          -12.3879
  
  solvation energy not yet converged... 
  
  Peak memory usage:    813 Mb
  
  end of program sole
   
 Time(sole)  user:        0.2  user+sys:        0.2  wallclock:        0.5
  
  start of program ch
  
  gridpoints used for charge fit        16547
    out of a possible maximum of        16547
  
   Electrostatic potential fitting constrained to reproduce
     total charge:                yes
     dipole moment:               no 
     traceless quadrupole moment: no 
     traceless octapole moment:   no 
  
  Atomic charges from electrostatic potential: 
   
 Atom       C1           C2           C3           C4           C5      
 Charge   -0.10337     -0.00587     -0.18521      0.21235     -0.04327
   
 Atom       C6           C7           C8           C9           C10     
 Charge   -0.24311     -0.36522     -0.11261      0.16404     -0.06428
   
 Atom       C11          O12          Si13         C14          C15     
 Charge    0.04066     -0.20756     -0.07554     -0.00189      0.16548
   
 Atom       C16          C17          C18          C19          C20     
 Charge    0.41883     -0.10294     -0.56665     -0.33489      0.16131
   
 Atom       Si21         O22          C23          C24          P25     
 Charge   -0.32488     -0.22836     -0.21118     -0.07973      0.61566
   
 Atom       O26          N27          C28          C29          C30     
 Charge   -0.50991     -0.41686      0.17744      0.11169      0.06121
   
 Atom       C31          C32          C33          C34          C35     
 Charge    0.35984      0.15859      0.15383     -0.07534     -0.20680
   
 Atom       C36          C37          C38          C39          C40     
 Charge   -0.15504     -0.18929     -0.02482     -0.23934     -0.14028
   
 Atom       C41          C42          C43          C44          C45     
 Charge   -0.31263     -0.06852     -0.21389     -0.16957     -0.12037
   
 Atom       C46          C47          C48          C49          C50     
 Charge   -0.19807     -0.12021     -0.16290     -0.14317     -0.14790
   
 Atom       C51          C52          C53          C54          C55     
 Charge   -0.11872     -0.18824     -0.12367     -0.11233     -0.26463
   
 Atom       C56          C57          C58          C59          C60     
 Charge   -0.05339     -0.09068     -0.22287     -0.11704     -0.13336
   
 Atom       C61          C62          C63          C64          C65     
 Charge   -0.14652     -0.18751     -0.05435     -0.16818     -0.20844
   
 Atom       C66          C67          C68          C69          C70     
 Charge    0.23949      0.01659     -0.11971     -0.15640     -0.24640
   
 Atom       N71          S72          O73          O74          C75     
 Charge   -0.20418      0.64129     -0.44552     -0.40844      0.51185
   
 Atom       C76          C77          C78          C79          N80     
 Charge   -0.36436      0.17160     -0.43766      0.38379     -0.60083
   
 Atom       N81          C82          C83          C84          C85     
 Charge    0.02167     -0.08207     -0.17867     -0.26422      0.04762
   
 Atom       H86          H87          H88          H89          H90     
 Charge    0.10200      0.15716      0.15210      0.18766      0.14180
   
 Atom       H91          H92          H93          H94          H95     
 Charge    0.11938      0.22750      0.17160      0.15605      0.13331
   
 Atom       H96          H97          H98          H99          H100    
 Charge    0.10767      0.14940      0.09939      0.13979     -0.01559
   
 Atom       H101         H102         H103         H104         H105    
 Charge    0.16079      0.08195      0.20546      0.12587      0.11846
   
 Atom       H106         H107         H108         H109         H110    
 Charge    0.11686      0.08251      0.13989      0.13285      0.14803
   
 Atom       H111         H112         H113         H114         H115    
 Charge    0.14037      0.13942      0.13441      0.14348      0.13832
   
 Atom       H116         H117         H118         H119         H120    
 Charge    0.13738      0.16044      0.09297      0.11626      0.15030
   
 Atom       H121         H122         H123         H124         H125    
 Charge    0.13719      0.14197      0.14403      0.14448      0.08725
   
 Atom       H126         H127         H128         H129         H130    
 Charge    0.16531      0.16094      0.04157      0.10123      0.16135
   
 Atom       H131         H132         H133         H134         H135    
 Charge    0.19502      0.17935      0.12196      0.19897      0.06408
   
 Atom       H136         H137         H138         H139         H140    
 Charge    0.26609      0.17646      0.17984      0.21414      0.13510
   
 Atom       S141         O142         C143         O144         F145    
 Charge    0.66512     -0.43344      0.39749     -0.45657     -0.08157
   
 Atom       F146         F147         H148    
 Charge   -0.14433     -0.13962      0.21641
  
  sum of atomic charges:    -0.000000
   
 RMS Error   9.96E-04 hartrees
 
  Peak memory usage:    816 Mb
  
  end of program ch
   
 Time(ch)  user:       17.8  user+sys:       17.8  wallclock:       82.8
  
  start of program post
  
  Writing input files for PBF
  Peak memory usage:    759 Mb
  
  end of program post
   
 Time(post)  user:        0.8  user+sys:        0.8  wallclock:        3.9

  start of program pbf

Pbf Version 4.10

Molecular surface area:      827.48922   [A2]
Reaction field energy:       -20.50855   [kT]
  Peak memory usage: 721 Mb

  end of program pbf

 Time(pbf)  user:       14.6  user+sys:       14.8  wallclock:       55.9
  
  start of program solv
  
   number of surface charges from PBF   13538
   sum of surface charges     -0.00037
   
  nuclear repulsion energy.......   20980.009814045 hartrees
  Peak memory usage:    894 Mb
  
  end of program solv
   
 Time(solv)  user:       37.1  user+sys:       37.1  wallclock:      132.8
  
  start of program scf
  
 Energy computed with NOPS off.
  
       i  u  d  i  g                   
       t  p  i  c  r                                 RMS    maximum
       e  d  i  u  i                       energy  density   DIIS  
       r  t  s  t  d       total energy    change  change    error 
  
etot    1  N  N  1  U   -5575.59600866542           5.0E-06  9.6E-05
etot    2  N  N  1  U   -5575.59599482678 -1.4E-05  0.0E+00  0.0E+00
  
  
 Energy components, in hartrees:
   (A)  Total zero-electron terms....   20983.57127647792
   (B)    Nuclear-nuclear............   20980.00981404488
   (C)    Nuclear-solvent............       3.56146243304
   (E)  Total one-electron terms.....  -49495.20612179620
   (F)    Electron-nuclear...........  -55027.63814803490
   (G)    Electron-solvent...........      -3.60396071312
   (H)    Kinetic....................    5536.03598695181
   (I)  Total two-electron terms.....   22936.03885049151
   (J)    Coulomb....................   23587.31291016622
   (K)    Exchange+Correlation.......    -651.27405967471
   (L)  Electronic energy............  -26559.16727130469  (E+I)
   (N)  Total quantum mech. energy...   -5575.59599482678  (A+L)
   (O)  Gas phase energy.............   -5575.55484032179
   (P)  Solution phase energy........   -5575.57474568674  (Q+R+S)
   (Q)    Total solute energy........   -5575.55349654670  (N-C-G)
   (R)    Total solvent energy.......      -0.02124914004  (C/2+G/2)
   (S)    Solute cavity energy.......       0.00000000000
   (U)  Reorganization energy........       0.00134377509  (Q-O)
   (V)  Solvation energy.............      -0.01990536495  (P-O)
  
 SCFE:  Solution phase energy: DFT(m06-2x)      -5575.57474568674 hartrees
        SCF iterations:   2
  
 
 HOMO energy:    -0.24623
 LUMO energy:    -0.06480
 
  Orbital energies (hartrees): 
   -90.17427   -90.14117   -78.21123   -67.01093   -67.00752   -25.27915
   -25.27416   -25.27398   -19.69131   -19.69041   -19.65774   -19.65748
   -19.61652   -19.61178   -19.60973   -14.82185   -14.81795   -14.78764
   -14.74297   -10.79265   -10.65930   -10.62890   -10.62091   -10.61960
   -10.61675   -10.60559   -10.60372   -10.58372   -10.58178   -10.58160
   -10.57950   -10.57690   -10.57205   -10.57064   -10.56977   -10.56836
   -10.56826   -10.56564   -10.56560   -10.56415   -10.56225   -10.55992
   -10.55958   -10.55904   -10.55485   -10.55423   -10.55296   -10.55291
   -10.55167   -10.55140   -10.55119   -10.55112   -10.55074   -10.55074
   -10.55074   -10.55037   -10.55003   -10.54979   -10.54939   -10.54908
   -10.54901   -10.54887   -10.54826   -10.54797   -10.54768   -10.54696
   -10.54631   -10.54620   -10.54602   -10.54592   -10.54582   -10.54567
   -10.54496   -10.54413   -10.54256   -10.54201   -10.54144   -10.54096
   -10.54046   -10.53990   -10.53956   -10.53948   -10.53696   -10.53681
   -10.53648   -10.53509   -10.53418   -10.53390   -10.53312   -10.53194
   -10.52852   -10.52303    -8.48469    -8.45011    -6.99055    -6.40699
    -6.40607    -6.40486    -6.37195    -6.37158    -6.37137    -5.54177
    -5.53806    -5.10880    -5.10818    -5.10646    -3.85164    -3.85126
    -3.85103    -3.84780    -3.84759    -3.84744    -1.44370    -1.35346
    -1.35052    -1.25063    -1.22729    -1.20733    -1.18509    -1.13936
    -1.11504    -1.09401    -1.09274    -1.08024    -1.06271    -0.98219
    -0.97483    -0.97311    -0.96188    -0.94744    -0.94422    -0.94382
    -0.94080    -0.93461    -0.93156    -0.92008    -0.91897    -0.90534
    -0.90081    -0.89471    -0.88487    -0.87927    -0.85595    -0.84945
    -0.84570    -0.84394    -0.84190    -0.83778    -0.83643    -0.83490
    -0.83337    -0.83186    -0.82953    -0.82615    -0.82584    -0.82578
    -0.82344    -0.82165    -0.82098    -0.81919    -0.81279    -0.80153
    -0.79543    -0.76046    -0.75374    -0.73413    -0.72048    -0.71241
    -0.70564    -0.70148    -0.69758    -0.69614    -0.69219    -0.68738
    -0.68632    -0.68022    -0.67634    -0.67534    -0.67497    -0.67412
    -0.67367    -0.67147    -0.67003    -0.66833    -0.66719    -0.66618
    -0.66410    -0.66298    -0.65910    -0.65894    -0.65406    -0.65019
    -0.64465    -0.64371    -0.63734    -0.62256    -0.61927    -0.60904
    -0.60799    -0.60194    -0.59685    -0.58243    -0.58022    -0.57919
    -0.57759    -0.57501    -0.57346    -0.57173    -0.57014    -0.56839
    -0.56725    -0.55782    -0.55687    -0.55077    -0.54653    -0.54383
    -0.54359    -0.54063    -0.53882    -0.53803    -0.53529    -0.53331
    -0.53148    -0.52433    -0.51961    -0.51957    -0.51798    -0.51661
    -0.51584    -0.51412    -0.51310    -0.51102    -0.50943    -0.50900
    -0.50550    -0.50511    -0.50475    -0.50277    -0.50165    -0.50129
    -0.49920    -0.49799    -0.49495    -0.49291    -0.49216    -0.49167
    -0.48998    -0.48941    -0.48684    -0.48607    -0.48528    -0.48446
    -0.48341    -0.48209    -0.48067    -0.48039    -0.47873    -0.47819
    -0.47488    -0.47273    -0.47100    -0.47026    -0.46396    -0.46020
    -0.45700    -0.45304    -0.44990    -0.44881    -0.44677    -0.44601
    -0.44423    -0.44224    -0.43945    -0.43409    -0.43107    -0.42704
    -0.42638    -0.42507    -0.42292    -0.42195    -0.41991    -0.41924
    -0.41670    -0.41414    -0.41323    -0.41267    -0.40841    -0.40250
    -0.40217    -0.40037    -0.39860    -0.39638    -0.39506    -0.39306
    -0.39271    -0.38958    -0.38840    -0.38758    -0.38645    -0.38279
    -0.38082    -0.37871    -0.37490    -0.37140    -0.36943    -0.36333
    -0.35745    -0.35272    -0.35192    -0.34694    -0.34578    -0.34433
    -0.34145    -0.34066    -0.33973    -0.33648    -0.33557    -0.33259
    -0.33153    -0.32696    -0.32077    -0.31775    -0.31569    -0.30323
    -0.30311    -0.30225    -0.30209    -0.30026    -0.29994    -0.29745
    -0.29555    -0.29110    -0.28993    -0.28943    -0.28761    -0.28425
    -0.28227    -0.27642    -0.26929    -0.24623    -0.06480    -0.01529
    -0.01519     0.00035     0.00471     0.01242     0.01536     0.01651
     0.01826     0.01920
 
  Peak memory usage:   1029 Mb
  
  end of program scf
   
 Time(scf)  user:     2577.9  user+sys:     2577.9  wallclock:    10658.0
  
  start of program sole
  
    SCRF                   solvation energy
  iteration          Hartrees            kcal/mol
     0               0.0000000            0.0000
     1              -0.0185431          -11.6360
     2              -0.0197414          -12.3879
     3              -0.0199054          -12.4908
  
  solvation energy not yet converged... 
  
  Peak memory usage:    813 Mb
  
  end of program sole
   
 Time(sole)  user:        0.2  user+sys:        0.2  wallclock:        0.6
  
  start of program ch
  
  gridpoints used for charge fit        16547
    out of a possible maximum of        16547
  
   Electrostatic potential fitting constrained to reproduce
     total charge:                yes
     dipole moment:               no 
     traceless quadrupole moment: no 
     traceless octapole moment:   no 
  
  Atomic charges from electrostatic potential: 
   
 Atom       C1           C2           C3           C4           C5      
 Charge   -0.10499     -0.00691     -0.18330      0.21384     -0.04591
   
 Atom       C6           C7           C8           C9           C10     
 Charge   -0.24173     -0.36316     -0.11247      0.16520     -0.06677
   
 Atom       C11          O12          Si13         C14          C15     
 Charge    0.04001     -0.20840     -0.07672     -0.00187      0.16521
   
 Atom       C16          C17          C18          C19          C20     
 Charge    0.41948     -0.10547     -0.56526     -0.33413      0.16104
   
 Atom       Si21         O22          C23          C24          P25     
 Charge   -0.32656     -0.22939     -0.20774     -0.07901      0.61692
   
 Atom       O26          N27          C28          C29          C30     
 Charge   -0.51079     -0.41828      0.17578      0.11304      0.06013
   
 Atom       C31          C32          C33          C34          C35     
 Charge    0.35818      0.16008      0.15326     -0.07471     -0.20620
   
 Atom       C36          C37          C38          C39          C40     
 Charge   -0.15511     -0.18928     -0.02458     -0.23889     -0.13953
   
 Atom       C41          C42          C43          C44          C45     
 Charge   -0.31345     -0.06882     -0.21487     -0.16825     -0.12059
   
 Atom       C46          C47          C48          C49          C50     
 Charge   -0.19804     -0.11915     -0.16215     -0.14269     -0.14752
   
 Atom       C51          C52          C53          C54          C55     
 Charge   -0.11827     -0.18852     -0.12128     -0.11168     -0.26546
   
 Atom       C56          C57          C58          C59          C60     
 Charge   -0.05218     -0.08845     -0.22233     -0.11684     -0.13219
   
 Atom       C61          C62          C63          C64          C65     
 Charge   -0.14620     -0.18681     -0.05431     -0.16731     -0.21010
   
 Atom       C66          C67          C68          C69          C70     
 Charge    0.23999      0.01469     -0.11770     -0.15581     -0.25193
   
 Atom       N71          S72          O73          O74          C75     
 Charge   -0.20470      0.63980     -0.44526     -0.40560      0.51319
   
 Atom       C76          C77          C78          C79          N80     
 Charge   -0.36175      0.17115     -0.43806      0.38266     -0.60239
   
 Atom       N81          C82          C83          C84          C85     
 Charge    0.01914     -0.07887     -0.17866     -0.26409      0.04827
   
 Atom       H86          H87          H88          H89          H90     
 Charge    0.10178      0.15682      0.15161      0.18702      0.14152
   
 Atom       H91          H92          H93          H94          H95     
 Charge    0.11956      0.22737      0.17126      0.15543      0.13290
   
 Atom       H96          H97          H98          H99          H100    
 Charge    0.10762      0.14909      0.09929      0.13949     -0.01626
   
 Atom       H101         H102         H103         H104         H105    
 Charge    0.16044      0.08193      0.20563      0.12580      0.11863
   
 Atom       H106         H107         H108         H109         H110    
 Charge    0.11656      0.08242      0.13988      0.13258      0.14771
   
 Atom       H111         H112         H113         H114         H115    
 Charge    0.14002      0.13910      0.13410      0.14324      0.13766
   
 Atom       H116         H117         H118         H119         H120    
 Charge    0.13700      0.16079      0.09223      0.11582      0.15003
   
 Atom       H121         H122         H123         H124         H125    
 Charge    0.13694      0.14158      0.14385      0.14426      0.08711
   
 Atom       H126         H127         H128         H129         H130    
 Charge    0.16533      0.16148      0.04205      0.10104      0.16131
   
 Atom       H131         H132         H133         H134         H135    
 Charge    0.19580      0.17902      0.12205      0.19908      0.06440
   
 Atom       H136         H137         H138         H139         H140    
 Charge    0.26626      0.17591      0.18004      0.21433      0.13523
   
 Atom       S141         O142         C143         O144         F145    
 Charge    0.66661     -0.43173      0.39812     -0.45877     -0.08155
   
 Atom       F146         F147         H148    
 Charge   -0.14485     -0.13952      0.21692
  
  sum of atomic charges:    -0.000000
   
 RMS Error   9.96E-04 hartrees
 
  Peak memory usage:    816 Mb
  
  end of program ch
   
 Time(ch)  user:       17.9  user+sys:       17.9  wallclock:       74.2
  
  start of program post
  
  Writing input files for PBF
  Peak memory usage:    759 Mb
  
  end of program post
   
 Time(post)  user:        0.8  user+sys:        0.8  wallclock:        3.8

  start of program pbf

Pbf Version 4.10

Molecular surface area:      827.48922   [A2]
Reaction field energy:       -20.49025   [kT]
  Peak memory usage: 721 Mb

  end of program pbf

 Time(pbf)  user:       14.4  user+sys:       14.6  wallclock:       55.1
  
  start of program solv
  
   number of surface charges from PBF   13538
   sum of surface charges     -0.00038
   
  nuclear repulsion energy.......   20980.009814045 hartrees
  Peak memory usage:    894 Mb
  
  end of program solv
   
 Time(solv)  user:       37.0  user+sys:       37.0  wallclock:      133.0
  
  start of program scf
  
 Energy computed with NOPS off.
  
       i  u  d  i  g                   
       t  p  i  c  r                                 RMS    maximum
       e  d  i  u  i                       energy  density   DIIS  
       r  t  s  t  d       total energy    change  change    error 
  
etot    1  N  N  1  U   -5575.59597275698           8.1E-06  1.6E-04
etot    2  N  N  1  U   -5575.59593090063 -4.2E-05  0.0E+00  0.0E+00
  
  
 Energy components, in hartrees:
   (A)  Total zero-electron terms....   20983.58111124745
   (B)    Nuclear-nuclear............   20980.00981404488
   (C)    Nuclear-solvent............       3.57129720257
   (E)  Total one-electron terms.....  -49494.83273676508
   (F)    Electron-nuclear...........  -55027.28231284225
   (G)    Electron-solvent...........      -3.61374902116
   (H)    Kinetic....................    5536.06332509834
   (I)  Total two-electron terms.....   22935.65569461700
   (J)    Coulomb....................   23586.93445400081
   (K)    Exchange+Correlation.......    -651.27875938381
   (L)  Electronic energy............  -26559.17704214808  (E+I)
   (N)  Total quantum mech. energy...   -5575.59593090063  (A+L)
   (O)  Gas phase energy.............   -5575.55484032179
   (P)  Solution phase energy........   -5575.57470499134  (Q+R+S)
   (Q)    Total solute energy........   -5575.55347908204  (N-C-G)
   (R)    Total solvent energy.......      -0.02122590930  (C/2+G/2)
   (S)    Solute cavity energy.......       0.00000000000
   (U)  Reorganization energy........       0.00136123975  (Q-O)
   (V)  Solvation energy.............      -0.01986466954  (P-O)
  
 SCFE:  Solution phase energy: DFT(m06-2x)      -5575.57470499134 hartrees
        SCF iterations:   2
  
 
 HOMO energy:    -0.24745
 LUMO energy:    -0.06625
 
  Orbital energies (hartrees): 
   -90.17527   -90.14134   -78.21389   -67.01244   -67.00917   -25.27789
   -25.27603   -25.27381   -19.69418   -19.69253   -19.65743   -19.65044
   -19.61882   -19.61124   -19.61045   -14.82549   -14.82235   -14.79131
   -14.74406   -10.79258   -10.66461   -10.62843   -10.62332   -10.62084
   -10.61785   -10.60818   -10.60532   -10.58575   -10.58284   -10.58001
   -10.57888   -10.57755   -10.57340   -10.57243   -10.57196   -10.57080
   -10.56720   -10.56663   -10.56501   -10.56433   -10.56355   -10.56300
   -10.56101   -10.55822   -10.55533   -10.55335   -10.55232   -10.55183
   -10.55131   -10.55118   -10.55095   -10.55094   -10.55033   -10.55022
   -10.55013   -10.55004   -10.54963   -10.54926   -10.54903   -10.54889
   -10.54847   -10.54845   -10.54794   -10.54758   -10.54712   -10.54673
   -10.54664   -10.54650   -10.54641   -10.54574   -10.54509   -10.54488
   -10.54487   -10.54421   -10.54316   -10.54223   -10.54210   -10.54158
   -10.53908   -10.53883   -10.53879   -10.53870   -10.53847   -10.53729
   -10.53695   -10.53556   -10.53489   -10.53445   -10.53426   -10.53268
   -10.53025   -10.52560    -8.48555    -8.45034    -6.99311    -6.40786
    -6.40693    -6.40573    -6.37218    -6.37181    -6.37160    -5.54323
    -5.53967    -5.11136    -5.11076    -5.10902    -3.85309    -3.85272
    -3.85249    -3.84942    -3.84920    -3.84905    -1.44381    -1.35309
    -1.35122    -1.25016    -1.22974    -1.20780    -1.18764    -1.13819
    -1.11656    -1.09470    -1.09433    -1.08148    -1.06552    -0.98367
    -0.97569    -0.97419    -0.96272    -0.94762    -0.94429    -0.94371
    -0.94094    -0.93466    -0.93200    -0.91983    -0.91969    -0.90591
    -0.90151    -0.89516    -0.88607    -0.88016    -0.85645    -0.85009
    -0.84622    -0.84448    -0.84226    -0.83788    -0.83646    -0.83495
    -0.83363    -0.83272    -0.82965    -0.82689    -0.82603    -0.82599
    -0.82399    -0.82198    -0.82126    -0.81983    -0.81311    -0.80236
    -0.79639    -0.76151    -0.75499    -0.73423    -0.72130    -0.71335
    -0.70657    -0.70254    -0.69835    -0.69672    -0.69320    -0.68863
    -0.68707    -0.68035    -0.67663    -0.67557    -0.67525    -0.67469
    -0.67406    -0.67204    -0.67042    -0.66859    -0.66737    -0.66645
    -0.66422    -0.66323    -0.65949    -0.65923    -0.65452    -0.65087
    -0.64565    -0.64450    -0.63869    -0.62371    -0.62016    -0.60929
    -0.60849    -0.60242    -0.59787    -0.58280    -0.58044    -0.57961
    -0.57814    -0.57536    -0.57383    -0.57222    -0.57090    -0.56879
    -0.56761    -0.55867    -0.55771    -0.55154    -0.54693    -0.54435
    -0.54428    -0.54167    -0.53906    -0.53853    -0.53605    -0.53372
    -0.53166    -0.52468    -0.52013    -0.52003    -0.51853    -0.51698
    -0.51630    -0.51460    -0.51337    -0.51152    -0.50972    -0.50968
    -0.50606    -0.50556    -0.50500    -0.50304    -0.50175    -0.50166
    -0.49961    -0.49825    -0.49538    -0.49364    -0.49260    -0.49202
    -0.49064    -0.48984    -0.48705    -0.48647    -0.48544    -0.48452
    -0.48379    -0.48314    -0.48083    -0.48068    -0.47933    -0.47879
    -0.47505    -0.47294    -0.47173    -0.47065    -0.46479    -0.46105
    -0.45694    -0.45326    -0.45033    -0.44901    -0.44736    -0.44656
    -0.44474    -0.44241    -0.44029    -0.43488    -0.43167    -0.42737
    -0.42667    -0.42553    -0.42381    -0.42197    -0.42041    -0.41966
    -0.41720    -0.41457    -0.41359    -0.41316    -0.40796    -0.40334
    -0.40257    -0.40071    -0.39916    -0.39619    -0.39526    -0.39325
    -0.39298    -0.38972    -0.38849    -0.38793    -0.38739    -0.38285
    -0.38153    -0.37914    -0.37565    -0.37250    -0.37030    -0.36285
    -0.35758    -0.35383    -0.35257    -0.34784    -0.34658    -0.34528
    -0.34213    -0.34158    -0.34044    -0.33734    -0.33626    -0.33328
    -0.33243    -0.32781    -0.32174    -0.31864    -0.31622    -0.30362
    -0.30316    -0.30250    -0.30234    -0.30042    -0.30005    -0.29785
    -0.29594    -0.29135    -0.29064    -0.29023    -0.28839    -0.28453
    -0.28264    -0.27743    -0.27050    -0.24745    -0.06625    -0.01634
    -0.01564    -0.00033     0.00466     0.01166     0.01449     0.01592
     0.01781     0.01875
 
  Peak memory usage:   1029 Mb
  
  end of program scf
   
 Time(scf)  user:     2575.1  user+sys:     2575.1  wallclock:    10675.8
  
  start of program sole
  
    SCRF                   solvation energy
  iteration          Hartrees            kcal/mol
     0               0.0000000            0.0000
     1              -0.0185431          -11.6360
     2              -0.0197414          -12.3879
     3              -0.0199054          -12.4908
     4              -0.0198647          -12.4653
  
  stopping: solvation energy converged
  
  iterations:   4    sfinal:    -12.4653 kcal/mol
  
  Peak memory usage:    813 Mb
  
  end of program sole
   
 Time(sole)  user:        0.2  user+sys:        0.2  wallclock:        0.6
  
  start of program post
  
  Writing input files for PBF
  Peak memory usage:    759 Mb
  
  end of program post
   
 Time(post)  user:        0.8  user+sys:        0.8  wallclock:        3.5

 Total cpu seconds     user:   50213.217   user+sys:   50213.217
  
 Total elapsed time:    207797 seconds

Job Toru-SiPh3-NTf-Type-I-E-4-scan-TS--SPE completed on tethys at Mon Mar  6 01:22:37 2017
