Job B3LYP-SPE-Toru-SiPh3-NTf-Type-I-Z-9-chkp2-unrestrained.mol started on tethys at Thu Nov 24 14:58:55 2016
jobid: tethys-0-5837002e

  +--------------------------------------------------------------------+
  |  Jaguar version 8.4, release  16                                   |
  |                                                                    |
  |  Copyright Schrodinger, Inc.                                       |
  |  All Rights Reserved.                                              |
  |                                                                    |
  |  The following have contributed to Jaguar (listed alphabetically): |
  |  Mike Beachy, Art Bochevarov, Dale Braden, Yixiang Cao,            |
  |  Chris Cortis, Rich Friesner, Bill Goddard, Hod Greeley,           |
  |  Tom Hughes, Jean-Marc Langlois, Daniel Mainz, Rob Murphy,         |
  |  Dean Philipp, Tom Pollard, Murco Ringnalda.                       |
  |                                                                    |
  |  Use of this program should be acknowledged in publications as:    |
  |                                                                    |
  |  Jaguar, version 8.4, Schrodinger, Inc., New York, NY, 2013.       |
  |                                                                    |
  |  A. D. Bochevarov, E. Harder, T. F. Hughes, J. R. Greenwood,       |
  |  D. A. Braden, D. M. Philipp, D. Rinaldo, M. D. Halls,             |
  |  J. Zhang, R. A. Friesner, "Jaguar: A High-Performance Quantum     |
  |  Chemistry Software Program with Strengths in Life and Materials   |
  |  Sciences", Int. J. Quantum Chem., 2013, 113(18), 2110-2142.       |
  +--------------------------------------------------------------------+
  
  start of program pre
  
  Job name: B3LYP-SPE-Toru-SiPh3-NTf-Type-I-Z-9-chkp2-unrestrained.mol
  Executables used: /usr/local/shared/schrodinger/current/jaguar-v84016/bin/Linux-x86_64
  Temporary files : /home/ab2144/.schrodinger/tmp/B3LYP-SPE-Toru-SiPh3-NTf-Type-I-Z-9-chkp2-unrestrained.mol
  Maestro file (input):  B3LYP-SPE-Toru-SiPh3-NTf-Type-I-Z-9-chkp2-unrestrained.mol.mae
  Maestro file (output): B3LYP-SPE-Toru-SiPh3-NTf-Type-I-Z-9-chkp2-unrestrained.mol.01.mae
  
  
  basis set:             6-31g**         
  net molecular charge:    0
  multiplicity:            1
  
  keygrid settings 
    wispc.....   7.500E-01
    ldens.....   0
    denspc....   7.500E-01
  
   grid     daf set  nls  grid set  Q type
  ------    -------  ---  --------  ------
  coarse       1      1       1        1
  medium       2      2       2        1
  fine         3      2       3        0
  ultrafine    4      2       4        1
  charge       0      1      -1        1
  gradient     5      2       4        1
  density      0      1       0        0
  DFT-fine     0      1     -13        0
  DFT-med.     0      1     -13        0
  DFT-grad     0      1     -13        0
  DFT-der2     0      1       0        0
  DFT-cphf     0      1       0        0
  LMP2-enrg    4      2       4        1
  LMP2-grad    5      2       2        1
  DFT-cphf2    0      1       0        0
  PBF-dens     0      1       0        0
  plotting     0      1       0        0
  
  idftgrdm  100
  ndftgrdm   50    0    0
  idftgrdf  111
  ndftgrdf   85    0    0
  idftgrdg  111
  ndftgrdg   80    3    0
  idftgrdu  433
  ndftgrdu  105    0    0
  idftgrdd  433
  ndftgrdd  105    0    0
  idftgrdc  433
  ndftgrdc   26    0    0
  idftgrdp  433
  ndftgrdp   18    0    0
  
  number of basis functions....         1680
  
 Input geometry:
                                   angstroms
  atom               x                 y                 z
  C1           -3.2591000000      4.5564000000      1.2585000000 
  C2           -3.5322000000      3.1063000000      1.0549000000 
  C3           -4.0322000000      5.2827000000      2.0739000000 
  C4           -4.5433000000      2.5282000000      1.7420000000 
  C5           -2.6728000000      2.2661000000      0.1669000000 
  C6           -5.3983000000      3.3442000000      2.6353000000 
  C7           -4.8021000000      1.0818000000      1.6039000000 
  C8           -5.1570000000      4.6504000000      2.7883000000 
  C9           -2.8263000000      0.9264000000      0.1714000000 
  C10          -1.5982000000      2.8793000000     -0.6543000000 
  C11          -4.0097000000      0.3162000000      0.8396000000 
  O12          -1.9548000000      0.1327000000     -0.5295000000 
  Si13         -4.4378000000     -1.4793000000      0.5471000000 
  C14          -1.8607000000      3.8057000000     -1.6018000000 
  C15          -0.1860000000      2.5810000000     -0.2903000000 
  C16          -0.7516000000      4.6307000000     -2.1408000000 
  C17          -3.2297000000      4.0812000000     -2.1032000000 
  C18           0.4876000000      4.4958000000     -1.6491000000 
  C19          -1.0627000000      5.6556000000     -3.1569000000 
  C20           0.7854000000      3.4535000000     -0.6384000000 
  Si21          2.4248000000      3.5022000000      0.2712000000 
  O22           0.0891000000      1.5295000000      0.5492000000 
  C23          -3.4368000000      5.0308000000     -3.0232000000 
  C24          -2.3230000000      5.8385000000     -3.5669000000 
  P25          -0.4441000000      0.0397000000      0.0872000000 
  O26          -0.3836000000     -0.7606000000      1.3546000000 
  C27          -3.0165000000     -2.5098000000      1.1580000000 
  C28          -6.0117000000     -1.9660000000      1.4140000000 
  C29          -4.7924000000     -1.7731000000     -1.2539000000 
  C30           2.0423000000      3.1778000000      2.0640000000 
  C31           3.6707000000      2.2892000000     -0.3786000000 
  C32           3.2241000000      5.1739000000      0.0861000000 
  C33          -2.3120000000     -3.2981000000      0.3287000000 
  C34          -2.6511000000     -2.4533000000      2.5942000000 
  C35          -7.1646000000     -1.3547000000      1.0914000000 
  C36          -6.0263000000     -3.0634000000      2.4128000000 
  C37          -4.8759000000     -0.7535000000     -2.1252000000 
  C38          -5.0871000000     -3.1510000000     -1.7154000000 
  C39           1.0689000000      3.8742000000      2.6761000000 
  C40           2.7613000000      2.1207000000      2.8142000000 
  C41           3.3816000000      1.4842000000     -1.4092000000 
  C42           5.0417000000      2.2863000000      0.1863000000 
  C43           3.7718000000      5.5259000000     -1.0900000000 
  C44           3.3174000000      6.1057000000      1.2376000000 
  C45          -1.2068000000     -4.1279000000      0.8509000000 
  C46          -0.9051000000     -4.1000000000      2.1541000000 
  C47          -1.6567000000     -3.2150000000      3.0669000000 
  C48          -8.4258000000     -1.7418000000      1.7563000000 
  C49          -8.4289000000     -2.7181000000      2.6709000000 
  C50          -7.1719000000     -3.4149000000      3.0101000000 
  C51          -5.2132000000     -1.0116000000     -3.5409000000 
  C52          -5.4523000000     -2.2606000000     -3.9571000000 
  C53          -5.3916000000     -3.3819000000     -2.9983000000 
  C54           0.7354000000      3.6040000000      4.0897000000 
  C55           1.4015000000      2.6615000000      4.7667000000 
  C56           2.4657000000      1.8864000000      4.0982000000 
  C57           4.4077000000      0.5672000000     -1.9496000000 
  C58           5.6425000000      0.5655000000     -1.4347000000 
  C59           5.9772000000      1.4739000000     -0.3198000000 
  C60           4.4272000000      6.8409000000     -1.2447000000 
  C61           4.4934000000      7.6828000000     -0.2073000000 
  C62           3.9155000000      7.2951000000      1.0949000000 
  C63           7.0024000000     -2.7799000000      0.0989000000 
  C64           5.6248000000     -2.8415000000     -0.1239000000 
  C65           4.7513000000     -2.0444000000      0.6275000000 
  C66           5.2995000000     -1.1867000000      1.6019000000 
  C67           6.6682000000     -1.1315000000      1.8246000000 
  C68           7.5301000000     -1.9335000000      1.0702000000 
  C69           3.2720000000     -1.9732000000      0.4572000000 
  N70           2.5408000000     -2.3996000000     -0.6255000000 
  S71           2.6729000000     -3.6712000000     -1.7599000000 
  O72           1.3449000000     -3.7448000000     -2.3507000000 
  O73           3.8704000000     -3.5202000000     -2.5889000000 
  C74           2.9359000000     -5.2009000000     -0.8008000000 
  C75           3.8482000000     -6.1327000000     -1.2940000000 
  C76           3.9127000000     -7.3655000000     -0.6441000000 
  C77           3.0794000000     -7.5988000000      0.4488000000 
  C78           2.2134000000     -6.5842000000      0.8597000000 
  N79           2.1347000000     -5.4011000000      0.2389000000 
  N80           1.5252000000     -1.9481000000      2.6080000000 
  C81           1.8646000000     -1.5727000000      3.8321000000 
  C82           3.0226000000     -2.2829000000      4.2485000000 
  C83           3.3678000000     -3.1112000000      3.2013000000 
  C84           2.4603000000     -2.8798000000      2.1116000000 
  H85          -2.4252000000      5.0387000000      0.7669000000 
  H86          -3.8277000000      6.3355000000      2.2202000000 
  H87          -6.2207000000      2.8852000000      3.1698000000 
  H88          -5.6511000000      0.6586000000      2.1217000000 
  H89          -5.7806000000      5.2451000000      3.4431000000 
  H90          -4.0757000000      3.5060000000     -1.7483000000 
  H91           1.2755000000      5.1409000000     -2.0091000000 
  H92          -0.2734000000      6.2711000000     -3.5720000000 
  H93          -4.4411000000      5.2126000000     -3.3840000000 
  H94          -2.5373000000      6.5954000000     -4.3104000000 
  H95          -2.5381000000     -3.3447000000     -0.7258000000 
  H96          -3.1923000000     -1.8001000000      3.2673000000 
  H97          -7.1853000000     -0.5683000000      0.3466000000 
  H98          -5.1213000000     -3.6004000000      2.6574000000 
  H99          -4.7108000000      0.2681000000     -1.8121000000 
  H100         -5.0569000000     -3.9770000000     -1.0157000000 
  H101          0.5137000000      4.6368000000      2.1433000000 
  H102          3.5279000000      1.5323000000      2.3350000000 
  H103          2.4111000000      1.5206000000     -1.8730000000 
  H104          5.2945000000      2.9498000000      1.0039000000 
  H105          3.7432000000      4.8535000000     -1.9387000000 
  H106          2.9114000000      5.8361000000      2.2017000000 
  H107         -0.6493000000     -4.7650000000      0.1770000000 
  H108         -0.1011000000     -4.7130000000      2.5398000000 
  H109         -1.3930000000     -3.1757000000      4.1158000000 
  H110         -9.3465000000     -1.2334000000      1.5011000000 
  H111         -9.3519000000     -3.0039000000      3.1584000000 
  H112         -7.1817000000     -4.2171000000      3.7366000000 
  H113         -5.2639000000     -0.1870000000     -4.2401000000 
  H114         -5.6978000000     -2.4507000000     -4.9939000000 
  H115         -5.6016000000     -4.3891000000     -3.3341000000 
  H116         -0.0488000000      4.1704000000      4.5750000000 
  H117          1.1594000000      2.4619000000      5.8025000000 
  H118          3.0006000000      1.1225000000      4.6475000000 
  H119          4.1619000000     -0.0972000000     -2.7671000000 
  H120          6.3958000000     -0.1040000000     -1.8292000000 
  H121          6.9781000000      1.4742000000      0.0919000000 
  H122          4.8546000000      7.1199000000     -2.1991000000 
  H123          4.9741000000      8.6462000000     -0.3183000000 
  H124          3.9820000000      7.9739000000      1.9354000000 
  H125          7.6632000000     -3.3922000000     -0.5070000000 
  H126          5.2562000000     -3.4682000000     -0.9216000000 
  H127          4.6384000000     -0.5601000000      2.1901000000 
  H128          7.0650000000     -0.4526000000      2.5730000000 
  H129          8.6026000000     -1.8863000000      1.2323000000 
  H130          2.8899000000     -0.9985000000      0.7517000000 
  H131          4.4661000000     -5.8929000000     -2.1507000000 
  H132          4.6007000000     -8.1306000000     -0.9899000000 
  H133          3.0965000000     -8.5463000000      0.9768000000 
  H134          1.5546000000     -6.7217000000      1.7133000000 
  H135          0.7191000000     -1.5219000000      2.0555000000 
  H136          1.2937000000     -0.8194000000      4.3590000000 
  H137          3.5191000000     -2.1734000000      5.2021000000 
  H138          4.2020000000     -3.7986000000      3.1671000000 
  H139          2.0695000000     -3.6905000000      1.5038000000 
  H140          1.6713000000     -1.8284000000     -0.8280000000 
  N141          0.4398000000     -0.6076000000     -1.1103000000 
  S142          0.3714000000     -0.2012000000     -2.6796000000 
  O143          1.5719000000     -0.7305000000     -3.3289000000 
  O144         -0.0328000000      1.1940000000     -2.9145000000 
  C145         -1.0428000000     -1.2143000000     -3.4017000000 
  F146         -2.1791000000     -0.5156000000     -3.3439000000 
  F147         -0.7672000000     -1.4730000000     -4.6843000000 
  F148         -1.2048000000     -2.3663000000     -2.7498000000 
   
  principal moments of inertia:
        amu*angstrom^2:    21600.27055    24475.89396    33716.11908
                g*cm^2: 3.58680886E-36 4.06431731E-36 5.59869259E-36
   
  rotational constants:
               cm^(-1):      0.00078044      0.00068874      0.00049999
                   GHz:      0.02339688      0.02064803      0.01498924
   
  Molecular weight:    1308.28 amu
   
  Stoichiometry: Si2C73PN4H56S2O7F3
  Molecular Point Group: C1      
  Point Group used: C1
  
  nuclear repulsion energy.......   20717.504491174 hartrees
 
 Non-default options chosen:
   SCF calculation type: DFT(b3lyp)                  
   DFT=Becke_3_Parameter/HF+Slater+Becke88+VWN+LYP (B3LYP)
   Solvation energy will be computed using PBF
     -solute cavity energy will not be included
     -surface area terms will not be included
   Highest accuracy cutoffs used in SCF
   Solvent: other                                                           
   Internal dielectric constant:    1.000
   Continuum dielectric constant:   2.380
   Solvent probe molecule radius:   2.760
  
 Temporary integer options set:
     73=  2
  
  atom       vdw   vdw2    cov     mass  grid  daf  charge   basis
  C1        1.949  1.900  0.770   12.000    Y    Y      Y    6-31g**
  C2        1.949  1.900  0.770   12.000    Y    Y      Y    6-31g**
  C3        1.949  1.900  0.770   12.000    Y    Y      Y    6-31g**
  C4        1.949  1.900  0.770   12.000    Y    Y      Y    6-31g**
  C5        1.949  1.900  0.770   12.000    Y    Y      Y    6-31g**
  C6        1.949  1.900  0.770   12.000    Y    Y      Y    6-31g**
  C7        1.949  1.900  0.770   12.000    Y    Y      Y    6-31g**
  C8        1.949  1.900  0.770   12.000    Y    Y      Y    6-31g**
  C9        1.949  1.900  0.770   12.000    Y    Y      Y    6-31g**
  C10       1.949  1.900  0.770   12.000    Y    Y      Y    6-31g**
  C11       1.949  1.900  0.770   12.000    Y    Y      Y    6-31g**
  O12       1.702  1.600  0.730   15.995    Y    Y      Y    6-31g**
  Si13      2.217  2.147  1.110   27.977    Y    Y      Y    6-31g**
  C14       1.949  1.900  0.770   12.000    Y    Y      Y    6-31g**
  C15       1.949  1.900  0.770   12.000    Y    Y      Y    6-31g**
  C16       1.949  1.900  0.770   12.000    Y    Y      Y    6-31g**
  C17       1.949  1.900  0.770   12.000    Y    Y      Y    6-31g**
  C18       1.949  1.900  0.770   12.000    Y    Y      Y    6-31g**
  C19       1.949  1.900  0.770   12.000    Y    Y      Y    6-31g**
  C20       1.949  1.900  0.770   12.000    Y    Y      Y    6-31g**
  Si21      2.217  2.147  1.110   27.977    Y    Y      Y    6-31g**
  O22       1.702  1.600  0.730   15.995    Y    Y      Y    6-31g**
  C23       1.949  1.900  0.770   12.000    Y    Y      Y    6-31g**
  C24       1.949  1.900  0.770   12.000    Y    Y      Y    6-31g**
  P25       2.147  2.074  1.060   30.974    Y    Y      Y    6-31g**
  O26       1.702  1.600  0.730   15.995    Y    Y      Y    6-31g**
  C27       1.949  1.900  0.770   12.000    Y    Y      Y    6-31g**
  C28       1.949  1.900  0.770   12.000    Y    Y      Y    6-31g**
  C29       1.949  1.900  0.770   12.000    Y    Y      Y    6-31g**
  C30       1.949  1.900  0.770   12.000    Y    Y      Y    6-31g**
  C31       1.949  1.900  0.770   12.000    Y    Y      Y    6-31g**
  C32       1.949  1.900  0.770   12.000    Y    Y      Y    6-31g**
  C33       1.949  1.900  0.770   12.000    Y    Y      Y    6-31g**
  C34       1.949  1.900  0.770   12.000    Y    Y      Y    6-31g**
  C35       1.949  1.900  0.770   12.000    Y    Y      Y    6-31g**
  C36       1.949  1.900  0.770   12.000    Y    Y      Y    6-31g**
  C37       1.949  1.900  0.770   12.000    Y    Y      Y    6-31g**
  C38       1.949  1.900  0.770   12.000    Y    Y      Y    6-31g**
  C39       1.949  1.900  0.770   12.000    Y    Y      Y    6-31g**
  C40       1.949  1.900  0.770   12.000    Y    Y      Y    6-31g**
  C41       1.949  1.900  0.770   12.000    Y    Y      Y    6-31g**
  C42       1.949  1.900  0.770   12.000    Y    Y      Y    6-31g**
  C43       1.949  1.900  0.770   12.000    Y    Y      Y    6-31g**
  C44       1.949  1.900  0.770   12.000    Y    Y      Y    6-31g**
  C45       1.949  1.900  0.770   12.000    Y    Y      Y    6-31g**
  C46       1.949  1.900  0.770   12.000    Y    Y      Y    6-31g**
  C47       1.949  1.900  0.770   12.000    Y    Y      Y    6-31g**
  C48       1.949  1.900  0.770   12.000    Y    Y      Y    6-31g**
  C49       1.949  1.900  0.770   12.000    Y    Y      Y    6-31g**
  C50       1.949  1.900  0.770   12.000    Y    Y      Y    6-31g**
  C51       1.949  1.900  0.770   12.000    Y    Y      Y    6-31g**
  C52       1.949  1.900  0.770   12.000    Y    Y      Y    6-31g**
  C53       1.949  1.900  0.770   12.000    Y    Y      Y    6-31g**
  C54       1.949  1.900  0.770   12.000    Y    Y      Y    6-31g**
  C55       1.949  1.900  0.770   12.000    Y    Y      Y    6-31g**
  C56       1.949  1.900  0.770   12.000    Y    Y      Y    6-31g**
  C57       1.949  1.900  0.770   12.000    Y    Y      Y    6-31g**
  C58       1.949  1.900  0.770   12.000    Y    Y      Y    6-31g**
  C59       1.949  1.900  0.770   12.000    Y    Y      Y    6-31g**
  C60       1.949  1.900  0.770   12.000    Y    Y      Y    6-31g**
  C61       1.949  1.900  0.770   12.000    Y    Y      Y    6-31g**
  C62       1.949  1.900  0.770   12.000    Y    Y      Y    6-31g**
  C63       1.949  1.900  0.770   12.000    Y    Y      Y    6-31g**
  C64       1.949  1.900  0.770   12.000    Y    Y      Y    6-31g**
  C65       1.949  1.900  0.770   12.000    Y    Y      Y    6-31g**
  C66       1.949  1.900  0.770   12.000    Y    Y      Y    6-31g**
  C67       1.949  1.900  0.770   12.000    Y    Y      Y    6-31g**
  C68       1.949  1.900  0.770   12.000    Y    Y      Y    6-31g**
  C69       1.949  1.900  0.770   12.000    Y    Y      Y    6-31g**
  N70       1.831  1.600  0.750   14.003    Y    Y      Y    6-31g**
  S71       2.070  1.900  1.020   31.972    Y    Y      Y    6-31g**
  O72       1.702  1.600  0.730   15.995    Y    Y      Y    6-31g**
  O73       1.702  1.600  0.730   15.995    Y    Y      Y    6-31g**
  C74       1.949  1.900  0.770   12.000    Y    Y      Y    6-31g**
  C75       1.949  1.900  0.770   12.000    Y    Y      Y    6-31g**
  C76       1.949  1.900  0.770   12.000    Y    Y      Y    6-31g**
  C77       1.949  1.900  0.770   12.000    Y    Y      Y    6-31g**
  C78       1.949  1.900  0.770   12.000    Y    Y      Y    6-31g**
  N79       1.831  1.600  0.750   14.003    Y    Y      Y    6-31g**
  N80       1.831  1.600  0.750   14.003    Y    Y      Y    6-31g**
  C81       1.949  1.900  0.770   12.000    Y    Y      Y    6-31g**
  C82       1.949  1.900  0.770   12.000    Y    Y      Y    6-31g**
  C83       1.949  1.900  0.770   12.000    Y    Y      Y    6-31g**
  C84       1.949  1.900  0.770   12.000    Y    Y      Y    6-31g**
  H85       1.597  1.150  0.320    1.008    Y    Y      Y    6-31g**
  H86       1.597  1.150  0.320    1.008    Y    Y      Y    6-31g**
  H87       1.597  1.150  0.320    1.008    Y    Y      Y    6-31g**
  H88       1.597  1.150  0.320    1.008    Y    Y      Y    6-31g**
  H89       1.597  1.150  0.320    1.008    Y    Y      Y    6-31g**
  H90       1.597  1.150  0.320    1.008    Y    Y      Y    6-31g**
  H91       1.597  1.150  0.320    1.008    Y    Y      Y    6-31g**
  H92       1.597  1.150  0.320    1.008    Y    Y      Y    6-31g**
  H93       1.597  1.150  0.320    1.008    Y    Y      Y    6-31g**
  H94       1.597  1.150  0.320    1.008    Y    Y      Y    6-31g**
  H95       1.597  1.150  0.320    1.008    Y    Y      Y    6-31g**
  H96       1.597  1.150  0.320    1.008    Y    Y      Y    6-31g**
  H97       1.597  1.150  0.320    1.008    Y    Y      Y    6-31g**
  H98       1.597  1.150  0.320    1.008    Y    Y      Y    6-31g**
  H99       1.597  1.150  0.320    1.008    Y    Y      Y    6-31g**
  H100      1.597  1.150  0.320    1.008    Y    Y      Y    6-31g**
  H101      1.597  1.150  0.320    1.008    Y    Y      Y    6-31g**
  H102      1.597  1.150  0.320    1.008    Y    Y      Y    6-31g**
  H103      1.597  1.150  0.320    1.008    Y    Y      Y    6-31g**
  H104      1.597  1.150  0.320    1.008    Y    Y      Y    6-31g**
  H105      1.597  1.150  0.320    1.008    Y    Y      Y    6-31g**
  H106      1.597  1.150  0.320    1.008    Y    Y      Y    6-31g**
  H107      1.597  1.150  0.320    1.008    Y    Y      Y    6-31g**
  H108      1.597  1.150  0.320    1.008    Y    Y      Y    6-31g**
  H109      1.597  1.150  0.320    1.008    Y    Y      Y    6-31g**
  H110      1.597  1.150  0.320    1.008    Y    Y      Y    6-31g**
  H111      1.597  1.150  0.320    1.008    Y    Y      Y    6-31g**
  H112      1.597  1.150  0.320    1.008    Y    Y      Y    6-31g**
  H113      1.597  1.150  0.320    1.008    Y    Y      Y    6-31g**
  H114      1.597  1.150  0.320    1.008    Y    Y      Y    6-31g**
  H115      1.597  1.150  0.320    1.008    Y    Y      Y    6-31g**
  H116      1.597  1.150  0.320    1.008    Y    Y      Y    6-31g**
  H117      1.597  1.150  0.320    1.008    Y    Y      Y    6-31g**
  H118      1.597  1.150  0.320    1.008    Y    Y      Y    6-31g**
  H119      1.597  1.150  0.320    1.008    Y    Y      Y    6-31g**
  H120      1.597  1.150  0.320    1.008    Y    Y      Y    6-31g**
  H121      1.597  1.150  0.320    1.008    Y    Y      Y    6-31g**
  H122      1.597  1.150  0.320    1.008    Y    Y      Y    6-31g**
  H123      1.597  1.150  0.320    1.008    Y    Y      Y    6-31g**
  H124      1.597  1.150  0.320    1.008    Y    Y      Y    6-31g**
  H125      1.597  1.150  0.320    1.008    Y    Y      Y    6-31g**
  H126      1.597  1.150  0.320    1.008    Y    Y      Y    6-31g**
  H127      1.597  1.150  0.320    1.008    Y    Y      Y    6-31g**
  H128      1.597  1.150  0.320    1.008    Y    Y      Y    6-31g**
  H129      1.597  1.150  0.320    1.008    Y    Y      Y    6-31g**
  H130      1.597  1.150  0.320    1.008    Y    Y      Y    6-31g**
  H131      1.597  1.150  0.320    1.008    Y    Y      Y    6-31g**
  H132      1.597  1.150  0.320    1.008    Y    Y      Y    6-31g**
  H133      1.597  1.150  0.320    1.008    Y    Y      Y    6-31g**
  H134      1.597  1.150  0.320    1.008    Y    Y      Y    6-31g**
  H135      1.597  1.150  0.320    1.008    Y    Y      Y    6-31g**
  H136      1.597  1.150  0.320    1.008    Y    Y      Y    6-31g**
  H137      1.597  1.150  0.320    1.008    Y    Y      Y    6-31g**
  H138      1.597  1.150  0.320    1.008    Y    Y      Y    6-31g**
  H139      1.597  1.150  0.320    1.008    Y    Y      Y    6-31g**
  H140      1.597  1.150  0.320    1.008    Y    Y      Y    6-31g**
  N141      1.831  1.600  0.750   14.003    Y    Y      Y    6-31g**
  S142      2.070  1.900  1.020   31.972    Y    Y      Y    6-31g**
  O143      1.702  1.600  0.730   15.995    Y    Y      Y    6-31g**
  O144      1.702  1.600  0.730   15.995    Y    Y      Y    6-31g**
  C145      1.949  1.900  0.770   12.000    Y    Y      Y    6-31g**
  F146      1.736  1.682  0.720   18.998    Y    Y      Y    6-31g**
  F147      1.736  1.682  0.720   18.998    Y    Y      Y    6-31g**
  F148      1.736  1.682  0.720   18.998    Y    Y      Y    6-31g**
  
  Peak memory usage:    528 Mb
  
  end of program pre
   
 Time(pre)  user:        0.0  user+sys:        0.0  wallclock:        0.4
  
  start of program onee
  
  smallest eigenvalue of S:    2.352E-04
  number of canonical orbitals.....         1673
  Peak memory usage:    707 Mb
  
  end of program onee
   
 Time(onee)  user:       26.0  user+sys:       27.0  wallclock:       27.5
  
  start of program hfig
  
  initial wavefunction generated automatically from atomic wavefunctions
 
  Irreducible     Total no   No of occupied orbitals 
  representation  orbitals   Shell_1  Shell_2    ...
  No Symm         1673        340
  ------------------------
  Orbital occupation/shell    1.000
 
  Peak memory usage:    646 Mb
  
  end of program hfig
   
 Time(hfig)  user:       47.0  user+sys:       48.0  wallclock:       57.3
  
  start of program probe
  
  Peak memory usage:    640 Mb
  
  end of program probe
   
 Time(probe)  user:       42.0  user+sys:       42.0  wallclock:       50.1
  
  start of program grid
  
  
   grid     grid set  grid #  grid sym
  ------    --------  ------  --------
  coarse        0        0        1
  medium        2        1        1
  fine          0        0        1
  ultrafine     4        2        1
  charge       -1        3        1
  gradient      4        2        1
  density       0        0        1
  DFT-fine    -13        4        1
  DFT-med.    -13        4        1
  DFT-grad    -13        4        1
  DFT-der2      0        0        1
  DFT-cphf      0        0        1
  LMP2-enrg     4        2        1
  LMP2-grad     2        1        1
  DFT-cphf2     0        0        1
  PBF-dens      0        0        1
  plotting      0        0        1
  
   
  number of gridpoints: 
     atom        C1       C2       C3       C4       C5       C6       C7
  grid # 1       96      101       93      102      100       96       92
  grid # 2      339      361      336      367      357      335      336
  grid # 3       28       26       38       51       15       46       28
  grid # 4    14816    14816    14816    14816    14816    14816    14816
   
  number of gridpoints: 
     atom        C8       C9      C10      C11      O12     Si13      C14
  grid # 1       94       97      100      100      112      471      101
  grid # 2      335      356      355      360      430      471      356
  grid # 3       45       16       10       15       32        7       17
  grid # 4    14816    14816    14816    14816    23902    22912    14816
   
  number of gridpoints: 
     atom       C15      C16      C17      C18      C19      C20     Si21
  grid # 1       97      101       97       94       97      100      470
  grid # 2      353      364      336      335      339      359      470
  grid # 3        9       31       30       23       43        8        7
  grid # 4    14816    14816    14816    14816    14816    14816    22912
   
  number of gridpoints: 
     atom       O22      C23      C24      P25      O26      C27      C28
  grid # 1      113       94       94      447      116      101      101
  grid # 2      441      339      338      447      444      357      359
  grid # 3       59       41       47        8       68        9       15
  grid # 4    23902    14816    14816    23204    23902    14816    14816
   
  number of gridpoints: 
     atom       C29      C30      C31      C32      C33      C34      C35
  grid # 1       99      101       99      101       92       94       92
  grid # 2      359      358      357      360      335      329      335
  grid # 3       10        9        7       15       17        7       20
  grid # 4    14816    14816    14816    14816    14816    14816    14816
   
  number of gridpoints: 
     atom       C36      C37      C38      C39      C40      C41      C42
  grid # 1       96       92       94       92       97       93       94
  grid # 2      340      331      335      333      338      332      334
  grid # 3       32       14       23       14       27       14       16
  grid # 4    14816    14816    14816    14816    14816    14816    14816
   
  number of gridpoints: 
     atom       C43      C44      C45      C46      C47      C48      C49
  grid # 1       92       97       93       94       92       94       94
  grid # 2      336      339      334      331      331      335      336
  grid # 3       18       36       27       27       17       41       48
  grid # 4    14816    14816    14816    14816    14816    14816    14816
   
  number of gridpoints: 
     atom       C50      C51      C52      C53      C54      C55      C56
  grid # 1       94       93       93       93       92       93       93
  grid # 2      336      330      334      336      335      335      334
  grid # 3       46       26       37       37       31       35       29
  grid # 4    14816    14816    14816    14816    14816    14816    14816
   
  number of gridpoints: 
     atom       C57      C58      C59      C60      C61      C62      C63
  grid # 1       94       93       93       94       94       94       96
  grid # 2      334      332      332      335      335      337      332
  grid # 3       24       27       25       39       48       45       23
  grid # 4    14816    14816    14816    14816    14816    14816    14816
   
  number of gridpoints: 
     atom       C64      C65      C66      C67      C68      C69      N70
  grid # 1       95       96       95       95       96       90       98
  grid # 2      332      356      330      329      330      322      357
  grid # 3       18       12        9       20       26        6       11
  grid # 4    14816    14816    14816    14816    14816    14816    15000
   
  number of gridpoints: 
     atom       S71      O72      O73      C74      C75      C76      C77
  grid # 1      437      120      120       95       96       97       97
  grid # 2      437      489      480      355      328      333      331
  grid # 3       11      166      175       27       39       48       46
  grid # 4    32664    23902    23902    14816    14816    14816    14816
   
  number of gridpoints: 
     atom       C78      N79      N80      C81      C82      C83      C84
  grid # 1       96      108       97       94       94       93       94
  grid # 2      339      398      345      330      329      332      317
  grid # 3       38       28       14       19       23       19        6
  grid # 4    14816    15000    15000    14816    14816    14816    14816
   
  number of gridpoints: 
     atom       H85      H86      H87      H88      H89      H90      H91
  grid # 1      111      118      118      110      118      112      112
  grid # 2      429      451      446      427      453      431      421
  grid # 3      203      407      359      173      424      227      174
  grid # 4    16416    16416    16416    16416    16416    16416    16416
   
  number of gridpoints: 
     atom       H92      H93      H94      H95      H96      H97      H98
  grid # 1      117      118      118      109      112      112      111
  grid # 2      443      450      451      421      438      436      432
  grid # 3      362      406      418      127      266      252      221
  grid # 4    16416    16416    16416    16416    16416    16416    16416
   
  number of gridpoints: 
     atom       H99     H100     H101     H102     H103     H104     H105
  grid # 1      110      112      109      107      107      112      112
  grid # 2      429      437      433      413      416      436      431
  grid # 3      171      260      202       97      117      253      237
  grid # 4    16416    16416    16416    16416    16416    16416    16416
   
  number of gridpoints: 
     atom      H106     H107     H108     H109     H110     H111     H112
  grid # 1      111      110      111      117      118      118      118
  grid # 2      432      434      430      446      452      453      453
  grid # 3      232      243      207      344      415      425      423
  grid # 4    16416    16416    16416    16416    16416    16416    16416
   
  number of gridpoints: 
     atom      H113     H114     H115     H116     H117     H118     H119
  grid # 1      117      118      118      118      117      113      113
  grid # 2      449      452      452      450      451      434      436
  grid # 3      369      415      419      376      395      250      255
  grid # 4    16416    16416    16416    16416    16416    16416    16416
   
  number of gridpoints: 
     atom      H120     H121     H122     H123     H124     H125     H126
  grid # 1      116      115      118      118      118      117      108
  grid # 2      443      443      452      453      453      448      414
  grid # 3      318      319      414      424      424      394      118
  grid # 4    16416    16416    16416    16416    16416    16416    16416
   
  number of gridpoints: 
     atom      H127     H128     H129     H130     H131     H132     H133
  grid # 1      108      117      117      102      112      118      118
  grid # 2      413      445      450      412      441      454      453
  grid # 3      106      352      408       86      299      430      428
  grid # 4    16416    16416    16416    16416    16416    16416    16416
   
  number of gridpoints: 
     atom      H134     H135     H136     H137     H138     H139     H140
  grid # 1      114      100      111      117      115      102       98
  grid # 2      439      390      435      458      450      408      393
  grid # 3      299       65      243      426      345       71       60
  grid # 4    16416    16416    16416    16416    16416    16416    16416
   
  number of gridpoints: 
     atom      N141     S142     O143     O144     C145     F146     F147
  grid # 1      105      441      119      120       90      513      533
  grid # 2      389      441      480      478      319      513      533
  grid # 3       18        7      134      144        7       99      300
  grid # 4    15000    32664    23902    23902    14816    23920    23920
   
  number of gridpoints: 
     atom      F148    total
  grid # 1      516    18359
  grid # 2      516    57833
  grid # 3      105    19411
  grid # 4    23920  2434294
   
  Peak memory usage:    671 Mb
  
  end of program grid
   
 Time(grid)  user:      378.0  user+sys:      379.0  wallclock:      569.2
  
  start of program rwr
  
  dpptrf failed in rinv with info = 189
  switching to SVD for RwR matrix  79 for grid  2
  Peak memory usage:    661 Mb
  
  end of program rwr
   
 Time(rwr)  user:       62.0  user+sys:       66.0  wallclock:      131.4
  
  start of program scf
  
 number of electrons..........        680
 number of alpha electrons....        340
 number of beta electrons.....        340
 number of orbitals, total....       1673
 number of doubly-occ'd orbs..        340
 number of open shell orbs....          0
 number of occupied orbitals..        340
 number of virtual orbitals...       1333
 number of hamiltonians.......          1
 number of shells.............          1
 SCF type: DFT=Becke_3_Parameter/HF+Slater+Becke88+VWN+LYP (B3LYP)
  
       i  u  d  i  g                   
       t  p  i  c  r                                 RMS    maximum
       e  d  i  u  i                       energy  density   DIIS  
       r  t  s  t  d       total energy    change  change    error 
  
etot    1  N  N  1  U   -5563.78612689521           5.3E-03  1.1E-01
etot    2  N  Y  1  U   -5461.09440909788 -1.0E+02  1.7E-02  2.1E-01
etot    3  N  Y  1  U   -5286.81874411841 -1.7E+02  1.5E-02  5.9E-01
etot    4  N  Y  1  U   -5534.90022076564  2.5E+02  1.3E-02  3.3E-01
etot    5  N  Y  1  U   -5434.76848493288 -1.0E+02  1.2E-02  2.5E-01
etot    6  N  Y  1  U   -5564.03239467016  1.3E+02  8.3E-03  8.4E-02
etot    7  N  Y  1  U   -5515.51781043174 -4.9E+01  8.0E-03  2.2E-01
etot    8  N  Y  1  U   -5576.58937589837  6.1E+01  1.3E-03  3.0E-02
etot    9  N  Y  1  U   -5573.50079167914 -3.1E+00  1.1E-03  3.9E-02
etot   10  N  Y  1  U   -5577.04342371194  3.5E+00  3.0E-04  2.0E-02
etot   11  N  Y  1  U   -5577.16399399355  1.2E-01  1.3E-04  8.2E-03
etot   12  N  Y  1  U   -5577.17063063486  6.6E-03  8.7E-05  3.2E-03
etot   13  N  Y  1  U   -5577.18252340044  1.2E-02  4.5E-05  2.6E-03
etot   14  N  Y  1  U   -5577.18438017053  1.9E-03  2.7E-05  8.9E-04
etot   15  N  Y  1  U   -5577.18545540913  1.1E-03  1.1E-05  9.1E-04
etot   16  N  Y  1  U   -5577.18575481635  3.0E-04  1.1E-05  3.6E-04
etot   17  N  Y  1  U   -5577.18592780460  1.7E-04  9.4E-06  2.6E-04
etot   18  N  Y  1  U   -5577.18601810483  9.0E-05  4.3E-06  1.4E-04
etot   19  N  N  1  U   -5577.18604535077  2.7E-05  0.0E+00  0.0E+00
  
  
 Energy components, in hartrees:
   (A)  Nuclear repulsion............   20717.50449117393
   (E)  Total one-electron terms.....  -48968.82071138246
   (F)    Electron-nuclear...........  -54503.94163485579
   (H)    Kinetic....................    5535.12092347331
   (I)  Total two-electron terms.....   22674.13017485776
   (J)    Coulomb....................   23327.34522810040
   (K)    Exchange+Correlation.......    -653.21505324264
   (L)  Electronic energy............  -26294.69053652470  (E+I)
   (M)  -V/T.........................       2.00759967532  (-(A+F+I)/H)
   (N)  Total energy.................   -5577.18604535077  (A+L)
  
 SCFE: SCF energy: DFT(b3lyp)     -5577.18604535077 hartrees   iterations:  19
  
 
 HOMO energy:    -0.19495
 LUMO energy:    -0.10216
 
  Orbital energies (hartrees): 
   -89.12907   -89.08668   -77.23561   -66.10913   -66.10603   -24.71414
   -24.71086   -24.71037   -19.19218   -19.19057   -19.15739   -19.15393
   -19.11582   -19.11506   -19.10566   -14.39299   -14.38606   -14.38359
   -14.30910   -10.41860   -10.29709   -10.28390   -10.26775   -10.25928
   -10.25113   -10.25018   -10.25005   -10.24363   -10.24197   -10.23706
   -10.22535   -10.22181   -10.21505   -10.20954   -10.20945   -10.20716
   -10.20702   -10.20645   -10.20250   -10.19814   -10.19476   -10.19339
   -10.19238   -10.18956   -10.18940   -10.18907   -10.18702   -10.18699
   -10.18674   -10.18672   -10.18671   -10.18643   -10.18599   -10.18565
   -10.18494   -10.18445   -10.18437   -10.18394   -10.18288   -10.18285
   -10.18244   -10.18233   -10.18209   -10.18069   -10.18028   -10.18024
   -10.17990   -10.17948   -10.17911   -10.17818   -10.17753   -10.17731
   -10.17649   -10.17628   -10.17568   -10.17530   -10.17526   -10.17513
   -10.17457   -10.17438   -10.17377   -10.17310   -10.17274   -10.17132
   -10.16977   -10.16913   -10.16814   -10.16692   -10.16663   -10.15947
   -10.15931   -10.15901    -8.15399    -8.11174    -6.68042    -6.11928
    -6.11775    -6.11715    -6.07638    -6.07576    -6.07533    -5.25557
    -5.25287    -4.84512    -4.84414    -4.84182    -3.61445    -3.61414
    -3.61409    -3.61187    -3.61156    -3.61112    -1.29226    -1.20525
    -1.20258    -1.12503    -1.09907    -1.08115    -1.05904    -1.01570
    -1.00358    -0.99361    -0.97220    -0.96821    -0.95086    -0.87364
    -0.87238    -0.86369    -0.85353    -0.84656    -0.84079    -0.83638
    -0.83526    -0.82901    -0.82815    -0.82664    -0.81454    -0.81389
    -0.80480    -0.80115    -0.78908    -0.78227    -0.76275    -0.75202
    -0.74935    -0.74524    -0.74175    -0.74129    -0.73588    -0.73574
    -0.73303    -0.73113    -0.72919    -0.72910    -0.72771    -0.72701
    -0.72641    -0.72472    -0.72380    -0.72257    -0.72067    -0.70640
    -0.69958    -0.68566    -0.67537    -0.65903    -0.63938    -0.62712
    -0.62502    -0.61460    -0.61373    -0.61022    -0.60881    -0.60417
    -0.60003    -0.59639    -0.59500    -0.59235    -0.59048    -0.59012
    -0.58767    -0.58396    -0.58172    -0.58095    -0.57992    -0.57846
    -0.57405    -0.57365    -0.57283    -0.57063    -0.56807    -0.56614
    -0.56535    -0.56171    -0.55050    -0.54454    -0.54322    -0.53774
    -0.52662    -0.52595    -0.52165    -0.51593    -0.51227    -0.50547
    -0.50132    -0.50021    -0.49635    -0.49553    -0.49503    -0.49370
    -0.48757    -0.48451    -0.48083    -0.47966    -0.47690    -0.46947
    -0.46414    -0.46336    -0.46070    -0.45918    -0.45667    -0.45453
    -0.45062    -0.44807    -0.44747    -0.44642    -0.44511    -0.44288
    -0.44198    -0.44066    -0.43980    -0.43939    -0.43801    -0.43712
    -0.43519    -0.43445    -0.43196    -0.43140    -0.43093    -0.42858
    -0.42600    -0.42547    -0.42502    -0.42311    -0.42260    -0.42123
    -0.42029    -0.42021    -0.41868    -0.41841    -0.41763    -0.41634
    -0.41503    -0.41313    -0.41258    -0.41082    -0.40718    -0.40575
    -0.40470    -0.40329    -0.40258    -0.39882    -0.38971    -0.38887
    -0.38765    -0.38541    -0.38279    -0.38210    -0.37957    -0.37803
    -0.37388    -0.37228    -0.36740    -0.36533    -0.36226    -0.36015
    -0.35965    -0.35647    -0.35391    -0.35155    -0.35100    -0.35039
    -0.34765    -0.34465    -0.34355    -0.34050    -0.33915    -0.33779
    -0.33626    -0.33545    -0.33460    -0.33297    -0.33078    -0.33054
    -0.32690    -0.32442    -0.32329    -0.32267    -0.32161    -0.32004
    -0.31573    -0.31484    -0.31249    -0.30440    -0.30114    -0.29923
    -0.29752    -0.29445    -0.29288    -0.29180    -0.28673    -0.28570
    -0.28385    -0.28244    -0.28059    -0.27931    -0.27452    -0.27191
    -0.27022    -0.26592    -0.26546    -0.26229    -0.25482    -0.24991
    -0.24638    -0.24558    -0.24360    -0.24358    -0.24218    -0.24098
    -0.23823    -0.23514    -0.23356    -0.23277    -0.22931    -0.22889
    -0.22757    -0.22395    -0.21681    -0.19495    -0.10216    -0.07529
    -0.05949    -0.03759    -0.02499    -0.01891    -0.01810    -0.01772
    -0.01053    -0.00686
 
  Peak memory usage:    861 Mb
  
  end of program scf
   
 Time(scf)  user:    14129.0  user+sys:    14287.0  wallclock:    28533.8
  
  start of program ch
  
  gridpoints used for charge fit        16824
    out of a possible maximum of        19411
  
   Electrostatic potential fitting constrained to reproduce
     total charge:                yes
     dipole moment:               no 
     traceless quadrupole moment: no 
     traceless octapole moment:   no 
  
  Atomic charges from electrostatic potential: 
   
 Atom       C1           C2           C3           C4           C5      
 Charge   -0.02877     -0.08218     -0.16997      0.17483      0.03064
   
 Atom       C6           C7           C8           C9           C10     
 Charge   -0.19425     -0.26168     -0.10449      0.23569     -0.21645
   
 Atom       C11          O12          Si13         C14          C15     
 Charge   -0.04743     -0.33096      0.06987      0.14110      0.31172
   
 Atom       C16          C17          C18          C19          C20     
 Charge    0.32284     -0.17691     -0.47854     -0.27695      0.05587
   
 Atom       Si21         O22          C23          C24          P25     
 Charge    0.06151     -0.39800     -0.15162     -0.08574      0.98677
   
 Atom       O26          C27          C28          C29          C30     
 Charge   -0.63893      0.19186      0.10440     -0.12277      0.13480
   
 Atom       C31          C32          C33          C34          C35     
 Charge    0.08677      0.07101     -0.26255     -0.14606     -0.10640
   
 Atom       C36          C37          C38          C39          C40     
 Charge   -0.16779      0.05871     -0.07532     -0.04957     -0.25957
   
 Atom       C41          C42          C43          C44          C45     
 Charge   -0.09791     -0.22596     -0.10998     -0.15599     -0.00037
   
 Atom       C46          C47          C48          C49          C50     
 Charge   -0.22213     -0.09431     -0.14375     -0.12811     -0.11200
   
 Atom       C51          C52          C53          C54          C55     
 Charge   -0.22267     -0.04128     -0.17376     -0.16727     -0.13350
   
 Atom       C56          C57          C58          C59          C60     
 Charge   -0.06358     -0.13354     -0.14171     -0.07559     -0.15714
   
 Atom       C61          C62          C63          C64          C65     
 Charge   -0.11293     -0.11371     -0.07396     -0.36892      0.41588
   
 Atom       C66          C67          C68          C69          N70     
 Charge   -0.16799     -0.11640     -0.13943     -0.15500     -0.15909
   
 Atom       S71          O72          O73          C74          C75     
 Charge    0.67227     -0.40735     -0.39436      0.26814     -0.20109
   
 Atom       C76          C77          C78          N79          N80     
 Charge    0.00062     -0.25763      0.20384     -0.26725     -0.07478
   
 Atom       C81          C82          C83          C84          H85     
 Charge   -0.04427     -0.19124     -0.21168      0.23330      0.06563
   
 Atom       H86          H87          H88          H89          H90     
 Charge    0.13085      0.12648      0.13397      0.11901      0.13082
   
 Atom       H91          H92          H93          H94          H95     
 Charge    0.19056      0.14754      0.12706      0.11551      0.15555
   
 Atom       H96          H97          H98          H99          H100    
 Charge    0.10518      0.09697      0.09389      0.06863      0.10114
   
 Atom       H101         H102         H103         H104         H105    
 Charge    0.08069      0.13532      0.13017      0.11820      0.10839
   
 Atom       H106         H107         H108         H109         H110    
 Charge    0.08643      0.06261      0.13708      0.09468      0.12149
   
 Atom       H111         H112         H113         H114         H115    
 Charge    0.11957      0.11790      0.13124      0.10230      0.12280
   
 Atom       H116         H117         H118         H119         H120    
 Charge    0.12638      0.11823      0.08335      0.13436      0.12650
   
 Atom       H121         H122         H123         H124         H125    
 Charge    0.10105      0.12570      0.11593      0.11686      0.12695
   
 Atom       H126         H127         H128         H129         H130    
 Charge    0.16963      0.10307      0.12506      0.12988      0.10656
   
 Atom       H131         H132         H133         H134         H135    
 Charge    0.14970      0.13182      0.16108      0.05953      0.31407
   
 Atom       H136         H137         H138         H139         H140    
 Charge    0.15564      0.15715      0.14185     -0.09349      0.20350
   
 Atom       N141         S142         O143         O144         C145    
 Charge   -0.56332      0.65071     -0.41792     -0.45609      0.49252
   
 Atom       F146         F147         F148    
 Charge   -0.14631     -0.15063     -0.11885
  
  sum of atomic charges:     0.000000
   
 RMS Error   9.09E-04 hartrees
 
  Peak memory usage:    589 Mb
  
  end of program ch
   
 Time(ch)  user:       20.0  user+sys:       21.0  wallclock:       42.6
  
  start of program post
  
  Writing input files for PBF
  Peak memory usage:    536 Mb
  
  end of program post
   
 Time(post)  user:        0.0  user+sys:        0.0  wallclock:        0.5

  start of program pbf

Pbf Version 4.00

Molecular surface area:      840.42017   [A2]
Reaction field energy:       -18.01109   [kT]
  Peak memory usage: 559 Mb

  end of program pbf

 Time(pbf)  user:        8.5  user+sys:        8.6  wallclock:       16.2
  
  start of program solv
  
   number of surface charges from PBF   13352
   sum of surface charges     -0.00025
   
  nuclear repulsion energy.......   20717.504491174 hartrees
  Peak memory usage:    701 Mb
  
  end of program solv
   
 Time(solv)  user:       40.0  user+sys:       40.0  wallclock:       87.0
  
  start of program scf
  
  
       i  u  d  i  g                   
       t  p  i  c  r                                 RMS    maximum
       e  d  i  u  i                       energy  density   DIIS  
       r  t  s  t  d       total energy    change  change    error 
  
etot    1  N  N  1  U   -5577.22389302678           7.3E-05  9.8E-04
etot    2  N  Y  1  U   -5577.22403167668  1.4E-04  3.3E-05  1.4E-03
etot    3  N  Y  1  U   -5577.22511270824  1.1E-03  1.1E-05  5.1E-04
etot    4  N  Y  1  U   -5577.22528134119  1.7E-04  4.8E-06  2.4E-04
etot    5  N  N  1  U   -5577.22530904348  2.8E-05  0.0E+00  0.0E+00
  
  
 Energy components, in hartrees:
   (A)  Total zero-electron terms....   20721.19615560003
   (B)    Nuclear-nuclear............   20717.50449117393
   (C)    Nuclear-solvent............       3.69166442610
   (E)  Total one-electron terms.....  -48974.46806952335
   (F)    Electron-nuclear...........  -54505.90585448276
   (G)    Electron-solvent...........      -3.73230567207
   (H)    Kinetic....................    5535.17009063148
   (I)  Total two-electron terms.....   22676.04660487984
   (J)    Coulomb....................   23329.28131323509
   (K)    Exchange+Correlation.......    -653.23470835525
   (L)  Electronic energy............  -26298.42146464351  (E+I)
   (N)  Total quantum mech. energy...   -5577.22530904348  (A+L)
   (O)  Gas phase energy.............   -5577.18604535077
   (P)  Solution phase energy........   -5577.20498842050  (Q+R+S)
   (Q)    Total solute energy........   -5577.18466779751  (N-C-G)
   (R)    Total solvent energy.......      -0.02032062298  (C/2+G/2)
   (S)    Solute cavity energy.......       0.00000000000
   (U)  Reorganization energy........       0.00137755326  (Q-O)
   (V)  Solvation energy.............      -0.01894306972  (P-O)
  
 SCFE:  Solution phase energy: DFT(b3lyp)      -5577.20498842050 hartrees
        SCF iterations:   5
  
 
 HOMO energy:    -0.19976
 LUMO energy:    -0.10013
 
  Orbital energies (hartrees): 
   -89.13159   -89.09761   -77.24075   -66.11258   -66.10988   -24.72412
   -24.72182   -24.72087   -19.19709   -19.19527   -19.15958   -19.15547
   -19.12615   -19.12610   -19.10988   -14.39086   -14.38716   -14.37719
   -14.31726   -10.42909   -10.29656   -10.27912   -10.25950   -10.25625
   -10.25541   -10.25474   -10.24027   -10.23613   -10.23500   -10.23242
   -10.22317   -10.21837   -10.21058   -10.20661   -10.20610   -10.20500
   -10.20410   -10.20305   -10.20259   -10.20237   -10.19823   -10.19799
   -10.19730   -10.19334   -10.19073   -10.19033   -10.19002   -10.18963
   -10.18926   -10.18874   -10.18847   -10.18812   -10.18809   -10.18789
   -10.18772   -10.18765   -10.18709   -10.18701   -10.18679   -10.18577
   -10.18531   -10.18519   -10.18509   -10.18448   -10.18380   -10.18369
   -10.18359   -10.18347   -10.18195   -10.18169   -10.18056   -10.17994
   -10.17972   -10.17953   -10.17945   -10.17933   -10.17931   -10.17894
   -10.17847   -10.17798   -10.17680   -10.17625   -10.17598   -10.17552
   -10.17331   -10.17229   -10.17162   -10.17039   -10.17025   -10.16370
   -10.16332   -10.16221    -8.15641    -8.12259    -6.68557    -6.12171
    -6.12030    -6.11947    -6.08718    -6.08666    -6.08619    -5.25901
    -5.25672    -4.85026    -4.84930    -4.84698    -3.61790    -3.61759
    -3.61753    -3.61571    -3.61541    -3.61497    -1.30273    -1.21551
    -1.21331    -1.12776    -1.10451    -1.09163    -1.06376    -1.01877
    -1.00156    -0.98721    -0.98360    -0.97210    -0.95161    -0.87866
    -0.87083    -0.86935    -0.85777    -0.84262    -0.84005    -0.83853
    -0.83794    -0.83258    -0.83192    -0.83037    -0.81761    -0.80832
    -0.80550    -0.80158    -0.78656    -0.78645    -0.75952    -0.75317
    -0.74936    -0.74784    -0.74518    -0.74267    -0.73927    -0.73893
    -0.73706    -0.73386    -0.73263    -0.73256    -0.73135    -0.73065
    -0.72971    -0.72736    -0.72630    -0.72443    -0.72300    -0.71601
    -0.70387    -0.68129    -0.66720    -0.66498    -0.63608    -0.63324
    -0.62232    -0.61895    -0.61767    -0.61245    -0.60868    -0.60326
    -0.60039    -0.59783    -0.59543    -0.59356    -0.59323    -0.59134
    -0.59091    -0.58753    -0.58652    -0.58380    -0.58337    -0.58174
    -0.57923    -0.57789    -0.57690    -0.57465    -0.57337    -0.56998
    -0.56622    -0.56210    -0.55613    -0.54668    -0.53964    -0.53888
    -0.52948    -0.52471    -0.51962    -0.51940    -0.50754    -0.50667
    -0.50424    -0.50304    -0.49958    -0.49860    -0.49718    -0.49439
    -0.49151    -0.48398    -0.48353    -0.47967    -0.47583    -0.47167
    -0.46662    -0.46348    -0.46195    -0.46037    -0.45871    -0.45494
    -0.45291    -0.45143    -0.45062    -0.44872    -0.44700    -0.44536
    -0.44506    -0.44381    -0.44155    -0.44098    -0.43837    -0.43750
    -0.43694    -0.43587    -0.43487    -0.43444    -0.43395    -0.43146
    -0.42998    -0.42908    -0.42750    -0.42630    -0.42566    -0.42447
    -0.42335    -0.42320    -0.41965    -0.41909    -0.41728    -0.41597
    -0.41554    -0.41531    -0.41395    -0.41335    -0.41254    -0.41068
    -0.40934    -0.40723    -0.40653    -0.40259    -0.39268    -0.39247
    -0.39045    -0.39011    -0.38603    -0.38480    -0.38255    -0.38095
    -0.37760    -0.37160    -0.36958    -0.36851    -0.36390    -0.36068
    -0.36037    -0.35774    -0.35681    -0.35569    -0.35481    -0.35393
    -0.35096    -0.34841    -0.34686    -0.34520    -0.34237    -0.34040
    -0.33846    -0.33703    -0.33612    -0.33469    -0.33356    -0.33313
    -0.32893    -0.32713    -0.32690    -0.32590    -0.32386    -0.32002
    -0.31962    -0.31849    -0.31563    -0.30923    -0.30497    -0.30230
    -0.29803    -0.29689    -0.29580    -0.29383    -0.29057    -0.28919
    -0.28649    -0.28542    -0.28394    -0.28308    -0.28095    -0.27594
    -0.27110    -0.27051    -0.26917    -0.26362    -0.26262    -0.25187
    -0.25061    -0.24896    -0.24761    -0.24677    -0.24508    -0.24247
    -0.24049    -0.23932    -0.23673    -0.23646    -0.23330    -0.23200
    -0.23130    -0.22843    -0.22107    -0.19976    -0.10013    -0.06860
    -0.05169    -0.04217    -0.02887    -0.02156    -0.01653    -0.01521
    -0.01407    -0.01066
 
  Peak memory usage:    859 Mb
  
  end of program scf
   
 Time(scf)  user:     3054.0  user+sys:     3089.0  wallclock:     5794.7
  
  start of program sole
  
    SCRF                   solvation energy
  iteration          Hartrees            kcal/mol
     0               0.0000000            0.0000
     1              -0.0189431          -11.8870
  
  solvation energy not yet converged... 
  
  Peak memory usage:    635 Mb
  
  end of program sole
   
 Time(sole)  user:        0.0  user+sys:        0.0  wallclock:        0.5
  
  start of program ch
  
  gridpoints used for charge fit        16824
    out of a possible maximum of        16824
  
   Electrostatic potential fitting constrained to reproduce
     total charge:                yes
     dipole moment:               no 
     traceless quadrupole moment: no 
     traceless octapole moment:   no 
  
  Atomic charges from electrostatic potential: 
   
 Atom       C1           C2           C3           C4           C5      
 Charge   -0.02981     -0.07922     -0.17741      0.17638      0.02550
   
 Atom       C6           C7           C8           C9           C10     
 Charge   -0.20291     -0.27136     -0.10804      0.23044     -0.20769
   
 Atom       C11          O12          Si13         C14          C15     
 Charge   -0.03250     -0.32743      0.04310      0.14341      0.29596
   
 Atom       C16          C17          C18          C19          C20     
 Charge    0.32118     -0.18457     -0.49231     -0.28413      0.07434
   
 Atom       Si21         O22          C23          C24          P25     
 Charge    0.03783     -0.38575     -0.15543     -0.09351      0.96958
   
 Atom       O26          C27          C28          C29          C30     
 Charge   -0.62774      0.20522      0.11456     -0.11814      0.14621
   
 Atom       C31          C32          C33          C34          C35     
 Charge    0.09331      0.07643     -0.27227     -0.15243     -0.11510
   
 Atom       C36          C37          C38          C39          C40     
 Charge   -0.17303      0.05968     -0.07865     -0.05029     -0.27405
   
 Atom       C41          C42          C43          C44          C45     
 Charge   -0.10457     -0.22676     -0.11487     -0.15629     -0.00587
   
 Atom       C46          C47          C48          C49          C50     
 Charge   -0.22898     -0.09760     -0.14730     -0.13661     -0.11871
   
 Atom       C51          C52          C53          C54          C55     
 Charge   -0.23239     -0.04464     -0.18265     -0.17379     -0.13619
   
 Atom       C56          C57          C58          C59          C60     
 Charge   -0.06867     -0.13852     -0.14611     -0.08294     -0.16160
   
 Atom       C61          C62          C63          C64          C65     
 Charge   -0.12153     -0.12177     -0.07808     -0.37961      0.43094
   
 Atom       C66          C67          C68          C69          N70     
 Charge   -0.16113     -0.12729     -0.14081     -0.18007     -0.14671
   
 Atom       S71          O72          O73          C74          C75     
 Charge    0.68363     -0.43052     -0.41506      0.27074     -0.20543
   
 Atom       C76          C77          C78          N79          N80     
 Charge    0.00340     -0.25520      0.20656     -0.27978     -0.06593
   
 Atom       C81          C82          C83          C84          H85     
 Charge   -0.04651     -0.19203     -0.21406      0.22913      0.06815
   
 Atom       H86          H87          H88          H89          H90     
 Charge    0.13835      0.13332      0.13984      0.12624      0.13355
   
 Atom       H91          H92          H93          H94          H95     
 Charge    0.19654      0.15437      0.13431      0.12338      0.15716
   
 Atom       H96          H97          H98          H99          H100    
 Charge    0.11006      0.10134      0.09503      0.06902      0.10476
   
 Atom       H101         H102         H103         H104         H105    
 Charge    0.08110      0.14382      0.13080      0.12060      0.11129
   
 Atom       H106         H107         H108         H109         H110    
 Charge    0.08478      0.06538      0.14512      0.10044      0.12845
   
 Atom       H111         H112         H113         H114         H115    
 Charge    0.12736      0.12551      0.13657      0.10856      0.12977
   
 Atom       H116         H117         H118         H119         H120    
 Charge    0.13209      0.12533      0.08994      0.13313      0.13239
   
 Atom       H121         H122         H123         H124         H125    
 Charge    0.10874      0.13275      0.12372      0.12471      0.13401
   
 Atom       H126         H127         H128         H129         H130    
 Charge    0.17574      0.09922      0.13285      0.13670      0.11123
   
 Atom       H131         H132         H133         H134         H135    
 Charge    0.15641      0.14199      0.16985      0.06467      0.30341
   
 Atom       H136         H137         H138         H139         H140    
 Charge    0.16386      0.16587      0.14832     -0.08723      0.20052
   
 Atom       N141         S142         O143         O144         C145    
 Charge   -0.54448      0.65316     -0.43574     -0.47319      0.49433
   
 Atom       F146         F147         F148    
 Charge   -0.14336     -0.15552     -0.11765
  
  sum of atomic charges:     0.000000
   
 RMS Error   9.14E-04 hartrees
 
  Peak memory usage:    588 Mb
  
  end of program ch
   
 Time(ch)  user:       20.0  user+sys:       21.0  wallclock:       51.6
  
  start of program post
  
  Writing input files for PBF
  Peak memory usage:    536 Mb
  
  end of program post
   
 Time(post)  user:        0.0  user+sys:        0.0  wallclock:        0.6

  start of program pbf

Pbf Version 4.00

Molecular surface area:      840.42017   [A2]
Reaction field energy:       -21.24833   [kT]
  Peak memory usage: 559 Mb

  end of program pbf

 Time(pbf)  user:        9.2  user+sys:        9.3  wallclock:       18.8
  
  start of program solv
  
   number of surface charges from PBF   13352
   sum of surface charges     -0.00027
   
  nuclear repulsion energy.......   20717.504491174 hartrees
  Peak memory usage:    701 Mb
  
  end of program solv
   
 Time(solv)  user:       40.0  user+sys:       40.0  wallclock:       81.0
  
  start of program scf
  
  
       i  u  d  i  g                   
       t  p  i  c  r                                 RMS    maximum
       e  d  i  u  i                       energy  density   DIIS  
       r  t  s  t  d       total energy    change  change    error 
  
etot    1  N  N  1  U   -5577.22876162677           1.1E-05  1.8E-04
etot    2  N  N  1  U   -5577.22872051285 -4.1E-05  0.0E+00  0.0E+00
  
  
 Energy components, in hartrees:
   (A)  Total zero-electron terms....   20721.63110210230
   (B)    Nuclear-nuclear............   20717.50449117393
   (C)    Nuclear-solvent............       4.12661092837
   (E)  Total one-electron terms.....  -48975.68065771314
   (F)    Electron-nuclear...........  -54506.70851813095
   (G)    Electron-solvent...........      -4.17135974998
   (H)    Kinetic....................    5535.19922016780
   (I)  Total two-electron terms.....   22676.82083509799
   (J)    Coulomb....................   23330.05996474826
   (K)    Exchange+Correlation.......    -653.23912965027
   (L)  Electronic energy............  -26298.85982261514  (E+I)
   (N)  Total quantum mech. energy...   -5577.22872051285  (A+L)
   (O)  Gas phase energy.............   -5577.18604535077
   (P)  Solution phase energy........   -5577.20634610204  (Q+R+S)
   (Q)    Total solute energy........   -5577.18397169123  (N-C-G)
   (R)    Total solvent energy.......      -0.02237441081  (C/2+G/2)
   (S)    Solute cavity energy.......       0.00000000000
   (U)  Reorganization energy........       0.00207365954  (Q-O)
   (V)  Solvation energy.............      -0.02030075127  (P-O)
  
 SCFE:  Solution phase energy: DFT(b3lyp)      -5577.20634610204 hartrees
        SCF iterations:   2
  
 
 HOMO energy:    -0.23686
 LUMO energy:    -0.09858
 
  Orbital energies (hartrees): 
   -80.13711   -76.89466   -76.30787   -61.95857   -45.16763   -34.66787
   -33.17900   -23.82336   -21.27587   -17.72769   -17.41109   -17.29861
   -17.12713   -16.43636   -15.44658   -14.04874   -13.64974   -13.28608
   -13.03629   -12.56585   -12.29939   -12.16985   -11.87861   -11.58710
   -11.52904   -11.52629   -11.51576   -11.31351   -11.14755   -11.13997
   -11.12488   -11.08610   -11.03788   -11.02607   -10.97966   -10.93835
   -10.88436   -10.88163   -10.86794   -10.68229   -10.66904   -10.66834
   -10.61743   -10.61196   -10.60467   -10.57554   -10.53014   -10.48924
   -10.48510   -10.47740   -10.44877   -10.43705   -10.43704   -10.42857
   -10.37737   -10.36237   -10.35527   -10.34520   -10.31630   -10.26989
   -10.26805   -10.26197   -10.26127   -10.25712   -10.24961   -10.24466
   -10.23905   -10.23193   -10.21469   -10.20740   -10.20735   -10.20636
   -10.19987   -10.19956   -10.18364   -10.16043   -10.15598   -10.14761
   -10.14158   -10.13170   -10.12917   -10.12588   -10.11355   -10.03073
   -10.00991    -9.96401    -9.95073    -9.93343    -9.92263    -9.84984
    -9.81959    -9.74098    -9.71372    -9.58468    -9.17776    -8.75538
    -8.19173    -6.68549    -6.39525    -6.28504    -6.21598    -6.19418
    -6.18763    -5.97712    -5.47028    -5.12737    -3.77711    -3.70957
    -3.68841    -3.64724    -3.64629    -3.63397    -1.21380    -1.20068
    -1.19881    -1.06644    -1.04279    -0.96336    -0.95686    -0.95364
    -0.95245    -0.91390    -0.88850    -0.88134    -0.87021    -0.86685
    -0.85978    -0.85960    -0.85642    -0.85328    -0.84527    -0.83100
    -0.83051    -0.81310    -0.80968    -0.80943    -0.80133    -0.79632
    -0.77919    -0.77874    -0.77022    -0.76911    -0.76288    -0.75650
    -0.74948    -0.73564    -0.72704    -0.72064    -0.72032    -0.72003
    -0.71046    -0.70569    -0.70284    -0.69702    -0.69588    -0.69282
    -0.68135    -0.67638    -0.66116    -0.64366    -0.64213    -0.64116
    -0.63168    -0.63146    -0.63075    -0.63062    -0.62433    -0.62427
    -0.62379    -0.62223    -0.60864    -0.59866    -0.59264    -0.58893
    -0.58627    -0.58309    -0.58236    -0.57176    -0.56518    -0.56296
    -0.56209    -0.55366    -0.55265    -0.55240    -0.55147    -0.54499
    -0.54267    -0.54077    -0.54067    -0.53857    -0.53646    -0.53257
    -0.52491    -0.52371    -0.52176    -0.52085    -0.51975    -0.51967
    -0.51924    -0.51657    -0.51365    -0.51354    -0.51233    -0.50950
    -0.50908    -0.50664    -0.50480    -0.50258    -0.50049    -0.49764
    -0.49368    -0.49279    -0.49117    -0.49113    -0.49038    -0.48805
    -0.48739    -0.48730    -0.48711    -0.48664    -0.48653    -0.48485
    -0.48422    -0.48293    -0.48193    -0.47867    -0.47857    -0.47688
    -0.47556    -0.47434    -0.47322    -0.47214    -0.47039    -0.46878
    -0.46873    -0.46394    -0.46314    -0.46278    -0.46064    -0.46039
    -0.45829    -0.45553    -0.45504    -0.45403    -0.44386    -0.44227
    -0.43769    -0.43745    -0.43447    -0.43383    -0.43164    -0.43163
    -0.43094    -0.42991    -0.42807    -0.42745    -0.42585    -0.42489
    -0.42442    -0.42298    -0.42206    -0.42195    -0.42023    -0.41987
    -0.41622    -0.41487    -0.41372    -0.41329    -0.41290    -0.41193
    -0.41190    -0.40857    -0.40824    -0.40657    -0.40333    -0.40225
    -0.40207    -0.40013    -0.39915    -0.39770    -0.39757    -0.39343
    -0.39065    -0.39022    -0.38987    -0.38908    -0.38854    -0.38708
    -0.38686    -0.38664    -0.38353    -0.38315    -0.38218    -0.38018
    -0.37893    -0.37881    -0.37842    -0.37807    -0.37768    -0.37619
    -0.37363    -0.37362    -0.37253    -0.37053    -0.36966    -0.36902
    -0.36572    -0.36511    -0.36176    -0.35815    -0.35379    -0.35133
    -0.34722    -0.34381    -0.34205    -0.34163    -0.32800    -0.32798
    -0.31921    -0.31902    -0.31715    -0.31578    -0.30831    -0.30489
    -0.29730    -0.29510    -0.29209    -0.27154    -0.26554    -0.26341
    -0.26063    -0.26042    -0.25608    -0.25468    -0.25259    -0.25075
    -0.24928    -0.24825    -0.24763    -0.23686    -0.09858    -0.06678
    -0.05025    -0.04216    -0.02896    -0.02140    -0.01554    -0.01436
    -0.01401    -0.01067
 
  Peak memory usage:    859 Mb
  
  end of program scf
   
 Time(scf)  user:      792.0  user+sys:      802.0  wallclock:     1354.3
  
  start of program sole
  
    SCRF                   solvation energy
  iteration          Hartrees            kcal/mol
     0               0.0000000            0.0000
     1              -0.0189431          -11.8870
     2              -0.0203008          -12.7389
  
  solvation energy not yet converged... 
  
  Peak memory usage:    635 Mb
  
  end of program sole
   
 Time(sole)  user:        0.0  user+sys:        0.0  wallclock:        0.4
  
  start of program ch
  
  gridpoints used for charge fit        16824
    out of a possible maximum of        16824
  
   Electrostatic potential fitting constrained to reproduce
     total charge:                yes
     dipole moment:               no 
     traceless quadrupole moment: no 
     traceless octapole moment:   no 
  
  Atomic charges from electrostatic potential: 
   
 Atom       C1           C2           C3           C4           C5      
 Charge   -0.03136     -0.07769     -0.17726      0.17609      0.02347
   
 Atom       C6           C7           C8           C9           C10     
 Charge   -0.20346     -0.27122     -0.10698      0.23021     -0.20627
   
 Atom       C11          O12          Si13         C14          C15     
 Charge   -0.03238     -0.32714      0.04123      0.14434      0.29366
   
 Atom       C16          C17          C18          C19          C20     
 Charge    0.32092     -0.18607     -0.49246     -0.28482      0.07377
   
 Atom       Si21         O22          C23          C24          P25     
 Charge    0.03662     -0.38364     -0.15461     -0.09359      0.96512
   
 Atom       O26          C27          C28          C29          C30     
 Charge   -0.62443      0.20500      0.11526     -0.11949      0.14709
   
 Atom       C31          C32          C33          C34          C35     
 Charge    0.09155      0.07685     -0.27217     -0.15225     -0.11634
   
 Atom       C36          C37          C38          C39          C40     
 Charge   -0.17418      0.06093     -0.07864     -0.05185     -0.27841
   
 Atom       C41          C42          C43          C44          C45     
 Charge   -0.10445     -0.22522     -0.11537     -0.15718     -0.00952
   
 Atom       C46          C47          C48          C49          C50     
 Charge   -0.22756     -0.09694     -0.14732     -0.13667     -0.11867
   
 Atom       C51          C52          C53          C54          C55     
 Charge   -0.23277     -0.04473     -0.18321     -0.17421     -0.13503
   
 Atom       C56          C57          C58          C59          C60     
 Charge   -0.06631     -0.14257     -0.14420     -0.08254     -0.16171
   
 Atom       C61          C62          C63          C64          C65     
 Charge   -0.12167     -0.12157     -0.07701     -0.38171      0.42835
   
 Atom       C66          C67          C68          C69          N70     
 Charge   -0.16023     -0.12587     -0.13741     -0.18958     -0.14636
   
 Atom       S71          O72          O73          C74          C75     
 Charge    0.67520     -0.42974     -0.41415      0.26957     -0.20715
   
 Atom       C76          C77          C78          N79          N80     
 Charge    0.00711     -0.25141      0.20693     -0.28494     -0.06932
   
 Atom       C81          C82          C83          C84          H85     
 Charge   -0.03780     -0.18804     -0.21255      0.22801      0.06918
   
 Atom       H86          H87          H88          H89          H90     
 Charge    0.13902      0.13397      0.14082      0.12696      0.13358
   
 Atom       H91          H92          H93          H94          H95     
 Charge    0.19646      0.15480      0.13501      0.12421      0.15612
   
 Atom       H96          H97          H98          H99          H100    
 Charge    0.11069      0.10151      0.09515      0.06826      0.10478
   
 Atom       H101         H102         H103         H104         H105    
 Charge    0.08090      0.14574      0.12932      0.12092      0.11060
   
 Atom       H106         H107         H108         H109         H110    
 Charge    0.08475      0.06581      0.14605      0.10162      0.12922
   
 Atom       H111         H112         H113         H114         H115    
 Charge    0.12819      0.12626      0.13663      0.10919      0.13050
   
 Atom       H116         H117         H118         H119         H120    
 Charge    0.13270      0.12626      0.09053      0.13265      0.13224
   
 Atom       H121         H122         H123         H124         H125    
 Charge    0.10989      0.13344      0.12462      0.12554      0.13422
   
 Atom       H126         H127         H128         H129         H130    
 Charge    0.17656      0.09854      0.13343      0.13688      0.11303
   
 Atom       H131         H132         H133         H134         H135    
 Charge    0.15703      0.14303      0.17089      0.06559      0.30107
   
 Atom       H136         H137         H138         H139         H140    
 Charge    0.16326      0.16633      0.14887     -0.08516      0.19845
   
 Atom       N141         S142         O143         O144         C145    
 Charge   -0.54215      0.65224     -0.43822     -0.47341      0.49361
   
 Atom       F146         F147         F148    
 Charge   -0.14275     -0.15586     -0.11748
  
  sum of atomic charges:     0.000000
   
 RMS Error   9.12E-04 hartrees
 
  Peak memory usage:    588 Mb
  
  end of program ch
   
 Time(ch)  user:       19.0  user+sys:       20.0  wallclock:       43.7
  
  start of program post
  
  Writing input files for PBF
  Peak memory usage:    536 Mb
  
  end of program post
   
 Time(post)  user:        0.0  user+sys:        0.0  wallclock:        0.4

  start of program pbf

Pbf Version 4.00

Molecular surface area:      840.42017   [A2]
Reaction field energy:       -21.96574   [kT]
  Peak memory usage: 559 Mb

  end of program pbf

 Time(pbf)  user:        8.0  user+sys:        8.1  wallclock:        9.1
  
  start of program solv
  
   number of surface charges from PBF   13352
   sum of surface charges     -0.00028
   
  nuclear repulsion energy.......   20717.504491174 hartrees
  Peak memory usage:    701 Mb
  
  end of program solv
   
 Time(solv)  user:       39.0  user+sys:       39.0  wallclock:       71.2
  
  start of program scf
  
  
       i  u  d  i  g                   
       t  p  i  c  r                                 RMS    maximum
       e  d  i  u  i                       energy  density   DIIS  
       r  t  s  t  d       total energy    change  change    error 
  
etot    1  N  N  1  U   -5577.22944473933           1.7E-05  3.8E-04
etot    2  N  Y  1  U   -5577.22913573568 -3.1E-04  1.2E-05  9.7E-04
etot    3  N  Y  1  U   -5577.22949943345  3.6E-04  7.4E-07  2.0E-05
etot    4  N  N  1  U   -5577.22950011760  6.8E-07  0.0E+00  0.0E+00
  
  
 Energy components, in hartrees:
   (A)  Total zero-electron terms....   20721.74477819188
   (B)    Nuclear-nuclear............   20717.50449117393
   (C)    Nuclear-solvent............       4.24028701796
   (E)  Total one-electron terms.....  -48975.40501491663
   (F)    Electron-nuclear...........  -54506.29765566513
   (G)    Electron-solvent...........      -4.28556215727
   (H)    Kinetic....................    5535.17820290577
   (I)  Total two-electron terms.....   22676.43073660714
   (J)    Coulomb....................   23329.66746078194
   (K)    Exchange+Correlation.......    -653.23672417480
   (L)  Electronic energy............  -26298.97427830948  (E+I)
   (N)  Total quantum mech. energy...   -5577.22950011760  (A+L)
   (O)  Gas phase energy.............   -5577.18604535077
   (P)  Solution phase energy........   -5577.20686254795  (Q+R+S)
   (Q)    Total solute energy........   -5577.18422497829  (N-C-G)
   (R)    Total solvent energy.......      -0.02263756966  (C/2+G/2)
   (S)    Solute cavity energy.......       0.00000000000
   (U)  Reorganization energy........       0.00182037248  (Q-O)
   (V)  Solvation energy.............      -0.02081719717  (P-O)
  
 SCFE:  Solution phase energy: DFT(b3lyp)      -5577.20686254795 hartrees
        SCF iterations:   4
  
 
 HOMO energy:    -0.20038
 LUMO energy:    -0.09941
 
  Orbital energies (hartrees): 
   -89.13119   -89.09879   -77.24109   -66.11287   -66.11020   -24.72534
   -24.72367   -24.72218   -19.19764   -19.19539   -19.16114   -19.15729
   -19.12840   -19.12806   -19.10991   -14.39027   -14.38579   -14.37613
   -14.31738   -10.43049   -10.29518   -10.27813   -10.25837   -10.25618
   -10.25565   -10.25500   -10.23911   -10.23540   -10.23402   -10.23116
   -10.22204   -10.21750   -10.21017   -10.20644   -10.20600   -10.20466
   -10.20337   -10.20272   -10.20269   -10.20206   -10.19884   -10.19860
   -10.19785   -10.19363   -10.19172   -10.19013   -10.18980   -10.18978
   -10.18943   -10.18873   -10.18858   -10.18816   -10.18815   -10.18802
   -10.18776   -10.18756   -10.18750   -10.18744   -10.18738   -10.18589
   -10.18549   -10.18548   -10.18541   -10.18508   -10.18428   -10.18411
   -10.18408   -10.18406   -10.18254   -10.18155   -10.18093   -10.18019
   -10.18010   -10.18007   -10.17995   -10.17990   -10.17951   -10.17906
   -10.17903   -10.17845   -10.17754   -10.17657   -10.17621   -10.17613
   -10.17368   -10.17306   -10.17167   -10.17071   -10.17068   -10.16422
   -10.16379   -10.16255    -8.15612    -8.12380    -6.68591    -6.12140
    -6.12002    -6.11915    -6.08837    -6.08788    -6.08740    -5.25931
    -5.25705    -4.85060    -4.84964    -4.84732    -3.61820    -3.61790
    -3.61784    -3.61604    -3.61574    -3.61530    -1.30422    -1.21698
    -1.21484    -1.12833    -1.10506    -1.09301    -1.06409    -1.01967
    -1.00105    -0.98625    -0.98532    -0.97223    -0.95083    -0.87920
    -0.87081    -0.86926    -0.85834    -0.84265    -0.84032    -0.83884
    -0.83686    -0.83305    -0.83243    -0.83068    -0.81792    -0.80748
    -0.80601    -0.80096    -0.78696    -0.78585    -0.75896    -0.75364
    -0.74895    -0.74791    -0.74548    -0.74261    -0.73951    -0.73929
    -0.73746    -0.73413    -0.73315    -0.73292    -0.73167    -0.73108
    -0.72998    -0.72772    -0.72680    -0.72486    -0.72248    -0.71726
    -0.70441    -0.68050    -0.66618    -0.66561    -0.63568    -0.63378
    -0.62192    -0.61928    -0.61809    -0.61276    -0.60829    -0.60349
    -0.59974    -0.59785    -0.59569    -0.59389    -0.59349    -0.59133
    -0.59062    -0.58806    -0.58699    -0.58421    -0.58383    -0.58207
    -0.58030    -0.57916    -0.57726    -0.57508    -0.57400    -0.56953
    -0.56677    -0.56152    -0.55659    -0.54701    -0.53920    -0.53835
    -0.52980    -0.52503    -0.51976    -0.51880    -0.50759    -0.50603
    -0.50447    -0.50331    -0.50005    -0.49898    -0.49761    -0.49435
    -0.49270    -0.48431    -0.48366    -0.47898    -0.47555    -0.47189
    -0.46697    -0.46349    -0.46233    -0.46077    -0.45832    -0.45576
    -0.45360    -0.45210    -0.45084    -0.44874    -0.44743    -0.44545
    -0.44491    -0.44417    -0.44194    -0.44134    -0.43889    -0.43781
    -0.43666    -0.43645    -0.43480    -0.43425    -0.43401    -0.43102
    -0.43050    -0.42959    -0.42818    -0.42671    -0.42602    -0.42488
    -0.42378    -0.42271    -0.42015    -0.41896    -0.41827    -0.41627
    -0.41578    -0.41565    -0.41435    -0.41408    -0.41189    -0.41033
    -0.40951    -0.40727    -0.40712    -0.40296    -0.39409    -0.39292
    -0.39059    -0.39021    -0.38619    -0.38471    -0.38284    -0.38115
    -0.37800    -0.37207    -0.36930    -0.36883    -0.36432    -0.36077
    -0.36031    -0.35761    -0.35680    -0.35602    -0.35522    -0.35431
    -0.35130    -0.34883    -0.34724    -0.34583    -0.34280    -0.34083
    -0.33883    -0.33713    -0.33641    -0.33511    -0.33379    -0.33347
    -0.32937    -0.32776    -0.32731    -0.32645    -0.32430    -0.32018
    -0.31943    -0.31892    -0.31597    -0.30980    -0.30550    -0.30292
    -0.29885    -0.29727    -0.29580    -0.29375    -0.29068    -0.28939
    -0.28696    -0.28587    -0.28397    -0.28339    -0.28151    -0.27661
    -0.27124    -0.27066    -0.26949    -0.26356    -0.26309    -0.25196
    -0.25102    -0.24928    -0.24789    -0.24710    -0.24515    -0.24263
    -0.24050    -0.23988    -0.23709    -0.23670    -0.23375    -0.23225
    -0.23151    -0.22892    -0.22148    -0.20038    -0.09941    -0.06768
    -0.05073    -0.04274    -0.02922    -0.02197    -0.01600    -0.01468
    -0.01432    -0.01097
 
  Peak memory usage:    859 Mb
  
  end of program scf
   
 Time(scf)  user:     2233.0  user+sys:     2256.0  wallclock:     3649.7
  
  start of program sole
  
    SCRF                   solvation energy
  iteration          Hartrees            kcal/mol
     0               0.0000000            0.0000
     1              -0.0189431          -11.8870
     2              -0.0203008          -12.7389
     3              -0.0208172          -13.0630
  
  solvation energy not yet converged... 
  
  Peak memory usage:    635 Mb
  
  end of program sole
   
 Time(sole)  user:        0.0  user+sys:        0.0  wallclock:        0.4
  
  start of program ch
  
  gridpoints used for charge fit        16824
    out of a possible maximum of        16824
  
   Electrostatic potential fitting constrained to reproduce
     total charge:                yes
     dipole moment:               no 
     traceless quadrupole moment: no 
     traceless octapole moment:   no 
  
  Atomic charges from electrostatic potential: 
   
 Atom       C1           C2           C3           C4           C5      
 Charge   -0.03049     -0.07820     -0.17752      0.17608      0.02386
   
 Atom       C6           C7           C8           C9           C10     
 Charge   -0.20344     -0.27168     -0.10761      0.23081     -0.20652
   
 Atom       C11          O12          Si13         C14          C15     
 Charge   -0.03218     -0.32698      0.04167      0.14415      0.29449
   
 Atom       C16          C17          C18          C19          C20     
 Charge    0.32082     -0.18558     -0.49307     -0.28466      0.07526
   
 Atom       Si21         O22          C23          C24          P25     
 Charge    0.03603     -0.38392     -0.15526     -0.09388      0.96526
   
 Atom       O26          C27          C28          C29          C30     
 Charge   -0.62558      0.20539      0.11516     -0.11833      0.14749
   
 Atom       C31          C32          C33          C34          C35     
 Charge    0.09328      0.07725     -0.27227     -0.15273     -0.11583
   
 Atom       C36          C37          C38          C39          C40     
 Charge   -0.17371      0.06017     -0.07864     -0.05123     -0.27691
   
 Atom       C41          C42          C43          C44          C45     
 Charge   -0.10504     -0.22617     -0.11545     -0.15680     -0.00754
   
 Atom       C46          C47          C48          C49          C50     
 Charge   -0.22870     -0.09747     -0.14745     -0.13682     -0.11893
   
 Atom       C51          C52          C53          C54          C55     
 Charge   -0.23288     -0.04489     -0.18328     -0.17411     -0.13594
   
 Atom       C56          C57          C58          C59          C60     
 Charge   -0.06759     -0.14040     -0.14557     -0.08325     -0.16162
   
 Atom       C61          C62          C63          C64          C65     
 Charge   -0.12202     -0.12190     -0.07821     -0.38084      0.43157
   
 Atom       C66          C67          C68          C69          N70     
 Charge   -0.16033     -0.12794     -0.13920     -0.18578     -0.14229
   
 Atom       S71          O72          O73          C74          C75     
 Charge    0.67974     -0.43184     -0.41640      0.27042     -0.20661
   
 Atom       C76          C77          C78          N79          N80     
 Charge    0.00495     -0.25336      0.20603     -0.28174     -0.06724
   
 Atom       C81          C82          C83          C84          H85     
 Charge   -0.04339     -0.19070     -0.21341      0.22813      0.06853
   
 Atom       H86          H87          H88          H89          H90     
 Charge    0.13902      0.13390      0.14041      0.12699      0.13352
   
 Atom       H91          H92          H93          H94          H95     
 Charge    0.19667      0.15468      0.13494      0.12410      0.15649
   
 Atom       H96          H97          H98          H99          H100    
 Charge    0.11046      0.10135      0.09498      0.06857      0.10469
   
 Atom       H101         H102         H103         H104         H105    
 Charge    0.08091      0.14515      0.13014      0.12070      0.11073
   
 Atom       H106         H107         H108         H109         H110    
 Charge    0.08454      0.06537      0.14593      0.10147      0.12912
   
 Atom       H111         H112         H113         H114         H115    
 Charge    0.12809      0.12617      0.13662      0.10907      0.13033
   
 Atom       H116         H117         H118         H119         H120    
 Charge    0.13254      0.12631      0.09049      0.13232      0.13249
   
 Atom       H121         H122         H123         H124         H125    
 Charge    0.10981      0.13331      0.12451      0.12542      0.13436
   
 Atom       H126         H127         H128         H129         H130    
 Charge    0.17656      0.09844      0.13365      0.13719      0.11243
   
 Atom       H131         H132         H133         H134         H135    
 Charge    0.15662      0.14329      0.17111      0.06533      0.30196
   
 Atom       H136         H137         H138         H139         H140    
 Charge    0.16398      0.16700      0.14896     -0.08572      0.19827
   
 Atom       N141         S142         O143         O144         C145    
 Charge   -0.54044      0.65169     -0.43758     -0.47422      0.49452
   
 Atom       F146         F147         F148    
 Charge   -0.14307     -0.15627     -0.11758
  
  sum of atomic charges:     0.000000
   
 RMS Error   9.12E-04 hartrees
 
  Peak memory usage:    588 Mb
  
  end of program ch
   
 Time(ch)  user:       20.0  user+sys:       21.0  wallclock:       39.6
  
  start of program post
  
  Writing input files for PBF
  Peak memory usage:    536 Mb
  
  end of program post
   
 Time(post)  user:        0.0  user+sys:        0.0  wallclock:        0.4

  start of program pbf

Pbf Version 4.00

Molecular surface area:      840.42017   [A2]
Reaction field energy:       -21.75716   [kT]
  Peak memory usage: 559 Mb

  end of program pbf

 Time(pbf)  user:        8.4  user+sys:        8.5  wallclock:       17.1
  
  start of program solv
  
   number of surface charges from PBF   13352
   sum of surface charges     -0.00028
   
  nuclear repulsion energy.......   20717.504491174 hartrees
  Peak memory usage:    701 Mb
  
  end of program solv
   
 Time(solv)  user:       40.0  user+sys:       40.0  wallclock:       81.3
  
  start of program scf
  
  
       i  u  d  i  g                   
       t  p  i  c  r                                 RMS    maximum
       e  d  i  u  i                       energy  density   DIIS  
       r  t  s  t  d       total energy    change  change    error 
  
etot    1  N  N  1  U   -5577.22929790159           1.3E-06  2.0E-05
etot    2  N  N  1  U   -5577.22929705551 -8.5E-07  0.0E+00  0.0E+00
  
  
 Energy components, in hartrees:
   (A)  Total zero-electron terms....   20721.70799147845
   (B)    Nuclear-nuclear............   20717.50449117393
   (C)    Nuclear-solvent............       4.20350030452
   (E)  Total one-electron terms.....  -48975.29713687142
   (F)    Electron-nuclear...........  -54506.22551526171
   (G)    Electron-solvent...........      -4.24850065527
   (H)    Kinetic....................    5535.17687904556
   (I)  Total two-electron terms.....   22676.35984833746
   (J)    Coulomb....................   23329.59638027522
   (K)    Exchange+Correlation.......    -653.23653193776
   (L)  Electronic energy............  -26298.93728853396  (E+I)
   (N)  Total quantum mech. energy...   -5577.22929705551  (A+L)
   (O)  Gas phase energy.............   -5577.18604535077
   (P)  Solution phase energy........   -5577.20679688013  (Q+R+S)
   (Q)    Total solute energy........   -5577.18429670476  (N-C-G)
   (R)    Total solvent energy.......      -0.02250017537  (C/2+G/2)
   (S)    Solute cavity energy.......       0.00000000000
   (U)  Reorganization energy........       0.00174864601  (Q-O)
   (V)  Solvation energy.............      -0.02075152936  (P-O)
  
 SCFE:  Solution phase energy: DFT(b3lyp)      -5577.20679688013 hartrees
        SCF iterations:   2
  
 
 HOMO energy:    -0.20045
 LUMO energy:    -0.09943
 
  Orbital energies (hartrees): 
   -89.13156   -89.09904   -77.24112   -66.11296   -66.11032   -24.72533
   -24.72374   -24.72211   -19.19786   -19.19531   -19.16156   -19.15781
   -19.12836   -19.12827   -19.10983   -14.39023   -14.38605   -14.37614
   -14.31756   -10.43060   -10.29527   -10.27859   -10.25821   -10.25601
   -10.25590   -10.25512   -10.23890   -10.23565   -10.23396   -10.23077
   -10.22216   -10.21734   -10.20989   -10.20650   -10.20599   -10.20460
   -10.20360   -10.20285   -10.20261   -10.20218   -10.19894   -10.19856
   -10.19795   -10.19359   -10.19188   -10.18994   -10.18965   -10.18961
   -10.18941   -10.18888   -10.18846   -10.18824   -10.18800   -10.18794
   -10.18777   -10.18761   -10.18758   -10.18750   -10.18740   -10.18583
   -10.18545   -10.18539   -10.18533   -10.18501   -10.18437   -10.18413
   -10.18412   -10.18405   -10.18244   -10.18133   -10.18075   -10.18033
   -10.18011   -10.17992   -10.17988   -10.17976   -10.17974   -10.17906
   -10.17895   -10.17842   -10.17763   -10.17681   -10.17650   -10.17628
   -10.17391   -10.17335   -10.17177   -10.17086   -10.17085   -10.16437
   -10.16382   -10.16273    -8.15648    -8.12403    -6.68595    -6.12176
    -6.12038    -6.11952    -6.08860    -6.08811    -6.08763    -5.25941
    -5.25718    -4.85063    -4.84968    -4.84736    -3.61830    -3.61799
    -3.61793    -3.61616    -3.61587    -3.61542    -1.30426    -1.21703
    -1.21486    -1.12865    -1.10516    -1.09314    -1.06417    -1.01999
    -1.00097    -0.98632    -0.98544    -0.97223    -0.95103    -0.87931
    -0.87089    -0.86933    -0.85840    -0.84264    -0.84032    -0.83884
    -0.83682    -0.83309    -0.83246    -0.83070    -0.81793    -0.80757
    -0.80605    -0.80086    -0.78705    -0.78592    -0.75903    -0.75367
    -0.74892    -0.74791    -0.74550    -0.74259    -0.73950    -0.73930
    -0.73750    -0.73415    -0.73318    -0.73294    -0.73169    -0.73110
    -0.72999    -0.72775    -0.72685    -0.72491    -0.72262    -0.71734
    -0.70449    -0.68059    -0.66622    -0.66569    -0.63577    -0.63386
    -0.62198    -0.61934    -0.61813    -0.61281    -0.60827    -0.60351
    -0.59979    -0.59783    -0.59570    -0.59391    -0.59349    -0.59134
    -0.59058    -0.58810    -0.58702    -0.58423    -0.58385    -0.58208
    -0.58033    -0.57921    -0.57729    -0.57513    -0.57404    -0.56950
    -0.56683    -0.56162    -0.55666    -0.54708    -0.53930    -0.53847
    -0.52983    -0.52506    -0.51980    -0.51884    -0.50758    -0.50607
    -0.50448    -0.50332    -0.50007    -0.49900    -0.49764    -0.49451
    -0.49279    -0.48434    -0.48368    -0.47904    -0.47566    -0.47190
    -0.46701    -0.46352    -0.46247    -0.46083    -0.45832    -0.45580
    -0.45363    -0.45213    -0.45088    -0.44875    -0.44748    -0.44546
    -0.44494    -0.44420    -0.44196    -0.44137    -0.43895    -0.43784
    -0.43668    -0.43649    -0.43482    -0.43428    -0.43402    -0.43106
    -0.43055    -0.42963    -0.42823    -0.42673    -0.42604    -0.42489
    -0.42380    -0.42276    -0.42019    -0.41894    -0.41830    -0.41626
    -0.41574    -0.41565    -0.41437    -0.41407    -0.41185    -0.41034
    -0.40952    -0.40726    -0.40714    -0.40300    -0.39412    -0.39297
    -0.39060    -0.39022    -0.38620    -0.38473    -0.38288    -0.38118
    -0.37803    -0.37211    -0.36938    -0.36888    -0.36438    -0.36082
    -0.36040    -0.35766    -0.35683    -0.35603    -0.35524    -0.35439
    -0.35140    -0.34889    -0.34727    -0.34588    -0.34283    -0.34087
    -0.33890    -0.33714    -0.33648    -0.33526    -0.33378    -0.33347
    -0.32941    -0.32781    -0.32733    -0.32648    -0.32440    -0.32024
    -0.31948    -0.31896    -0.31614    -0.30987    -0.30554    -0.30297
    -0.29894    -0.29733    -0.29586    -0.29383    -0.29079    -0.28945
    -0.28703    -0.28593    -0.28401    -0.28345    -0.28155    -0.27668
    -0.27130    -0.27075    -0.26955    -0.26361    -0.26315    -0.25197
    -0.25104    -0.24930    -0.24788    -0.24710    -0.24516    -0.24265
    -0.24053    -0.23992    -0.23711    -0.23672    -0.23379    -0.23230
    -0.23155    -0.22898    -0.22152    -0.20045    -0.09943    -0.06773
    -0.05076    -0.04282    -0.02924    -0.02202    -0.01603    -0.01474
    -0.01435    -0.01100
 
  Peak memory usage:    859 Mb
  
  end of program scf
   
 Time(scf)  user:      752.0  user+sys:      761.0  wallclock:     1249.9
  
  start of program sole
  
    SCRF                   solvation energy
  iteration          Hartrees            kcal/mol
     0               0.0000000            0.0000
     1              -0.0189431          -11.8870
     2              -0.0203008          -12.7389
     3              -0.0208172          -13.0630
     4              -0.0207515          -13.0218
  
  stopping: solvation energy converged
  
  iterations:   4    sfinal:    -13.0218 kcal/mol
  
  Peak memory usage:    635 Mb
  
  end of program sole
   
 Time(sole)  user:        0.0  user+sys:        0.0  wallclock:        0.3
  
  start of program post
  
  Writing input files for PBF
  Peak memory usage:    536 Mb
  
  end of program post
   
 Time(post)  user:        0.0  user+sys:        0.0  wallclock:        0.3

 Total cpu seconds     user:   21752.000   user+sys:   21996.000
  
 Total elapsed time:    42000 seconds

Job B3LYP-SPE-Toru-SiPh3-NTf-Type-I-Z-9-chkp2-unrestrained.mol completed on tethys at Fri Nov 25 02:38:55 2016
