[running at reduced cpu priority]
Job Toru-SiPh3-Type-I-E-6-fine-grid-uf-acc-sol started on tethys at Fri Nov 11 12:51:14 2016
jobid: tethys-0-5825bec1 
Jaguar version 8.4, release  16
Molecular Point Group: C1      
Point Group used: C1
pre (input checking) done.
onee (1-electron integrals) done.
hfig (HF initial guess) done.
probe (project orbitals) done.
grid (grid generation) done.
rwr (Q operators) done.
scf type: DFT=M06-2X
  
       i  u  d  i  g
       t  p  i  c  r                                 RMS    maximum
       e  d  i  u  i                       energy  density   DIIS  
       r  t  s  t  d       total energy    change  change    error 
  
etot    1  N  N  1  U   -4700.03934919100           2.3E-03  1.4E-01
etot    2  N  Y  1  U   -4705.20829149073  5.2E+00  3.8E-03  8.0E-02
etot    3  N  Y  1  U   -4693.27505594121 -1.2E+01  3.7E-03  9.7E-02
etot    4  N  Y  1  U   -4704.08501100125  1.1E+01  1.6E-03  8.1E-02
etot    5  N  Y  1  U   -4709.57473486599  5.5E+00  5.9E-04  2.3E-02
etot    6  N  Y  1  U   -4709.93448747257  3.6E-01  2.6E-04  2.0E-02
etot    7  N  Y  1  U   -4710.00574964727  7.1E-02  1.2E-04  6.2E-03
etot    8  N  Y  1  U   -4710.03077675566  2.5E-02  7.8E-05  3.9E-03
etot    9  N  Y  1  U   -4710.04000395915  9.2E-03  3.9E-05  1.5E-03
etot   10  N  Y  1  U   -4710.04159029654  1.6E-03  1.4E-05  4.6E-04
etot   11  N  Y  1  U   -4710.04179675679  2.1E-04  4.8E-06  1.6E-04
etot   12  N  N  1  U   -4710.04181902251  2.2E-05  0.0E+00  0.0E+00
scf (DFT) done.
--------gas phase calculation complete----------------------
ch (properties) done.
post (output conversion) done.
pbf (Poisson-Boltzmann solver) done.
solv (solvation checking) done.
  
       i  u  d  i  g
       t  p  i  c  r                                 RMS    maximum
       e  d  i  u  i                       energy  density   DIIS  
       r  t  s  t  d       total energy    change  change    error 
  
etot    1  N  N  1  U   -4710.07712397918           5.2E-05  1.0E-03
etot    2  N  Y  1  U   -4710.07784463866  7.2E-04  1.7E-05  8.5E-04
etot    3  N  Y  1  U   -4710.07803998701  2.0E-04  5.7E-06  4.4E-04
etot    4  N  N  1  U   -4710.07808677317  4.7E-05  0.0E+00  0.0E+00
scf (DFT) done.
sole (solvation energy) done.
----------solvation iteration  1 complete------------------
ch (properties) done.
post (output conversion) done.
pbf (Poisson-Boltzmann solver) done.
solv (solvation checking) done.
  
       i  u  d  i  g
       t  p  i  c  r                                 RMS    maximum
       e  d  i  u  i                       energy  density   DIIS  
       r  t  s  t  d       total energy    change  change    error 
  
etot    1  N  N  1  U   -4710.08050633464           6.4E-06  1.1E-04
etot    2  N  N  1  U   -4710.08051256919  6.2E-06  0.0E+00  0.0E+00
scf (DFT) done.
sole (solvation energy) done.
----------solvation iteration  2 complete------------------
ch (properties) done.
post (output conversion) done.
pbf (Poisson-Boltzmann solver) done.
solv (solvation checking) done.
  
       i  u  d  i  g
       t  p  i  c  r                                 RMS    maximum
       e  d  i  u  i                       energy  density   DIIS  
       r  t  s  t  d       total energy    change  change    error 
  
etot    1  N  N  1  U   -4710.08080979202           5.6E-06  1.2E-04
etot    2  N  N  1  U   -4710.08079219444 -1.8E-05  0.0E+00  0.0E+00
scf (DFT) done.
sole (solvation energy) done.
----final solvation iteration  3 complete------------------
post (output conversion) done.
Job Toru-SiPh3-Type-I-E-6-fine-grid-uf-acc-sol completed on tethys at Sat Nov 12 00:06:39 2016
