Job Toru-SiPh3-Type-I-E-6-fine-grid-uf-acc-sol started on tethys at Fri Nov 11 12:51:14 2016
jobid: tethys-0-5825bec1

  +--------------------------------------------------------------------+
  |  Jaguar version 8.4, release  16                                   |
  |                                                                    |
  |  Copyright Schrodinger, Inc.                                       |
  |  All Rights Reserved.                                              |
  |                                                                    |
  |  The following have contributed to Jaguar (listed alphabetically): |
  |  Mike Beachy, Art Bochevarov, Dale Braden, Yixiang Cao,            |
  |  Chris Cortis, Rich Friesner, Bill Goddard, Hod Greeley,           |
  |  Tom Hughes, Jean-Marc Langlois, Daniel Mainz, Rob Murphy,         |
  |  Dean Philipp, Tom Pollard, Murco Ringnalda.                       |
  |                                                                    |
  |  Use of this program should be acknowledged in publications as:    |
  |                                                                    |
  |  Jaguar, version 8.4, Schrodinger, Inc., New York, NY, 2013.       |
  |                                                                    |
  |  A. D. Bochevarov, E. Harder, T. F. Hughes, J. R. Greenwood,       |
  |  D. A. Braden, D. M. Philipp, D. Rinaldo, M. D. Halls,             |
  |  J. Zhang, R. A. Friesner, "Jaguar: A High-Performance Quantum     |
  |  Chemistry Software Program with Strengths in Life and Materials   |
  |  Sciences", Int. J. Quantum Chem., 2013, 113(18), 2110-2142.       |
  +--------------------------------------------------------------------+
  
  start of program pre
  
  Job name: Toru-SiPh3-Type-I-E-6-fine-grid-uf-acc-sol
  Executables used: /usr/local/shared/schrodinger/current/jaguar-v84016/bin/Linux-x86_64
  Temporary files : /home/ab2144/.schrodinger/tmp/Toru-SiPh3-Type-I-E-6-fine-grid-uf-acc-sol
  Maestro file (input):  Toru-SiPh3-Type-I-E-6-fine-grid-uf-acc-sol.mae
  Maestro file (output): Toru-SiPh3-Type-I-E-6-fine-grid-uf-acc-sol.01.mae
  
  
  basis set:             6-31g**         
  net molecular charge:    0
  multiplicity:            1
  
  keygrid settings 
    wispc.....   7.500E-01
    ldens.....   0
    denspc....   7.500E-01
  
   grid     daf set  nls  grid set  Q type
  ------    -------  ---  --------  ------
  coarse       1      1       1        1
  medium       2      2       2        1
  fine         3      2       3        0
  ultrafine    4      2       4        1
  charge       0      1      -1        1
  gradient     5      2       4        1
  density      0      1       0        0
  DFT-fine     0      1     -13        0
  DFT-med.     0      1     -13        0
  DFT-grad     0      1     -13        0
  DFT-der2     0      1       0        0
  DFT-cphf     0      1       0        0
  LMP2-enrg    4      2       4        1
  LMP2-grad    5      2       2        1
  DFT-cphf2    0      1       0        0
  PBF-dens     0      1       0        0
  plotting     0      1       0        0
  
  idftgrdm  100
  ndftgrdm   50    0    0
  idftgrdf  111
  ndftgrdf   85    0    0
  idftgrdg  111
  ndftgrdg   80    3    0
  idftgrdu  433
  ndftgrdu  105    0    0
  idftgrdd  433
  ndftgrdd  105    0    0
  idftgrdc  433
  ndftgrdc   26    0    0
  idftgrdp  433
  ndftgrdp   18    0    0
  
  number of basis functions....         1571
  
 Input geometry:
                                   angstroms
  atom               x                 y                 z
  C1           -1.6490000000      5.4634000000      0.4712000000 
  C2           -2.2907000000      4.1369000000      0.2530000000 
  C3           -2.3460000000      6.4730000000      1.0052000000 
  C4           -3.5703000000      3.9575000000      0.6473000000 
  C5           -1.5374000000      2.9904000000     -0.3403000000 
  C6           -4.3350000000      5.0837000000      1.2319000000 
  C7           -4.2070000000      2.6348000000      0.5124000000 
  C8           -3.7546000000      6.2770000000      1.3958000000 
  C9           -2.0886000000      1.7578000000     -0.3472000000 
  C10          -0.1643000000      3.1736000000     -0.8694000000 
  C11          -3.5197000000      1.5868000000      0.0336000000 
  O12          -1.3606000000      0.6892000000     -0.8103000000 
  Si13         -4.3998000000     -0.0512000000     -0.1141000000 
  C14           0.1100000000      4.0236000000     -1.8856000000 
  C15           0.9449000000      2.4318000000     -0.2065000000 
  C16           1.5223000000      4.3209000000     -2.2274000000 
  C17          -0.9443000000      4.6974000000     -2.6856000000 
  C18           2.5167000000      3.7616000000     -1.5275000000 
  C19           1.8021000000      5.2722000000     -3.3215000000 
  C20           2.2239000000      2.7931000000     -0.4448000000 
  Si21          3.6610000000      2.0467000000      0.4844000000 
  O22           0.6484000000      1.4932000000      0.7522000000 
  C23          -0.6154000000      5.5478000000     -3.6653000000 
  C24           0.7961000000      5.8461000000     -3.9903000000 
  P25          -0.1758000000      0.1687000000      0.2134000000 
  O26          -0.7803000000     -0.4440000000      1.4585000000 
  O27           0.7427000000     -0.6888000000     -0.6307000000 
  C28          -4.3454000000     -0.9290000000      1.5319000000 
  C29          -6.1752000000      0.3146000000     -0.5599000000 
  C30          -3.6719000000     -1.0671000000     -1.4978000000 
  C31           3.8627000000      0.3050000000     -0.1338000000 
  C32           5.2022000000      3.0193000000      0.1230000000 
  C33           3.4498000000      2.1599000000      2.3332000000 
  C34          -3.7249000000     -0.3739000000      2.5877000000 
  C35          -5.0527000000     -2.2225000000      1.7060000000 
  C36          -6.4681000000      0.9285000000     -1.7195000000 
  C37          -7.2768000000     -0.0163000000      0.3799000000 
  C38          -3.4421000000     -2.3830000000     -1.3568000000 
  C39          -3.3903000000     -0.4201000000     -2.8040000000 
  C40           4.0216000000     -0.7309000000      0.7047000000 
  C41           3.9135000000      0.0706000000     -1.5974000000 
  C42           6.2784000000      2.4518000000     -0.4476000000 
  C43           5.2465000000      4.4520000000      0.5015000000 
  C44           4.3960000000      1.6582000000      3.1456000000 
  C45           2.2920000000      2.8746000000      2.9273000000 
  C46          -3.7398000000     -1.0495000000      3.9015000000 
  C47          -4.3713000000     -2.2198000000      4.0477000000 
  C48          -5.0587000000     -2.8353000000      2.8958000000 
  C49          -7.8703000000      1.2317000000     -2.0727000000 
  C50          -8.8584000000      0.9113000000     -1.2303000000 
  C51          -8.5460000000      0.2631000000      0.0583000000 
  C52          -2.9795000000     -3.1862000000     -2.5067000000 
  C53          -2.7530000000     -2.6012000000     -3.6877000000 
  C54          -2.9526000000     -1.1472000000     -3.8388000000 
  C55           4.2894000000     -2.0833000000      0.1744000000 
  C56           4.3618000000     -2.2830000000     -1.1450000000 
  C57           4.1485000000     -1.1573000000     -2.0755000000 
  C58           7.4898000000      3.2569000000     -0.7102000000 
  C59           7.5216000000      4.5519000000     -0.3737000000 
  C60           6.3454000000      5.1781000000      0.2632000000 
  C61           4.2402000000      1.7379000000      4.6126000000 
  C62           3.1710000000      2.3436000000      5.1409000000 
  C63           2.1565000000      2.9509000000      4.2570000000 
  C64           2.9882000000     -4.6447000000      3.5393000000 
  C65           2.2370000000     -4.8519000000      2.3858000000 
  C66           1.6053000000     -3.7763000000      1.7386000000 
  C67           1.7053000000     -2.4919000000      2.2976000000 
  C68           2.4456000000     -2.2923000000      3.4622000000 
  C69           3.0952000000     -3.3613000000      4.0800000000 
  C70           0.8666000000     -4.0748000000      0.4914000000 
  N71           0.9398000000     -3.2343000000     -0.5927000000 
  S72           0.6119000000     -3.8780000000     -2.1238000000 
  O73          -0.2925000000     -5.0224000000     -1.9493000000 
  O74           0.2901000000     -2.7617000000     -3.0058000000 
  C75           2.2088000000     -4.5425000000     -2.6705000000 
  C76           2.7755000000     -4.0494000000     -3.8425000000 
  C77           3.9813000000     -4.6222000000     -4.2490000000 
  C78           4.5423000000     -5.6347000000     -3.4729000000 
  C79           3.8784000000     -6.0391000000     -2.3117000000 
  N80           2.7206000000     -5.5047000000     -1.9092000000 
  N81          -1.2859000000     -2.9884000000      1.8557000000 
  C82          -1.3281000000     -3.3626000000      3.1329000000 
  C83          -1.3310000000     -4.7750000000      3.2233000000 
  C84          -1.2525000000     -5.2481000000      1.9276000000 
  C85          -1.1208000000     -4.1234000000      1.0521000000 
  H86          -0.6104000000      5.6257000000      0.2166000000 
  H87          -1.8746000000      7.4346000000      1.1620000000 
  H88          -5.3667000000      4.9443000000      1.5302000000 
  H89          -5.2400000000      2.5230000000      0.8188000000 
  H90          -4.3134000000      7.0989000000      1.8242000000 
  H91          -1.9925000000      4.4987000000     -2.5029000000 
  H92           3.5428000000      3.9951000000     -1.7802000000 
  H93           2.8242000000      5.5141000000     -3.5877000000 
  H94          -1.3978000000      6.0258000000     -4.2408000000 
  H95           1.0156000000      6.5422000000     -4.7897000000 
  H96           0.8889000000     -2.1277000000     -0.5558000000 
  H97          -3.2138000000      0.5753000000      2.5035000000 
  H98          -5.5856000000     -2.6682000000      0.8756000000 
  H99          -5.6898000000      1.2206000000     -2.4085000000 
  H100         -7.0694000000     -0.4642000000      1.3405000000 
  H101         -3.6155000000     -2.8875000000     -0.4206000000 
  H102         -3.5114000000      0.6483000000     -2.9227000000 
  H103          3.9875000000     -0.5967000000      1.7734000000 
  H104          3.7701000000      0.8940000000     -2.2858000000 
  H105          6.2843000000      1.4052000000     -0.7184000000 
  H106          4.3877000000      4.9175000000      0.9693000000 
  H107          5.2801000000      1.1819000000      2.7403000000 
  H108          1.5625000000      3.3646000000      2.2988000000 
  H109         -3.2328000000     -0.5973000000      4.7439000000 
  H110         -4.3774000000     -2.7183000000      5.0083000000 
  H111         -5.5775000000     -3.7770000000      3.0194000000 
  H112         -8.0952000000      1.7149000000     -3.0147000000 
  H113         -9.8860000000      1.1339000000     -1.4869000000 
  H114         -9.3460000000      0.0249000000      0.7474000000 
  H115         -2.8372000000     -4.2525000000     -2.3932000000 
  H116         -2.4142000000     -3.1899000000     -4.5304000000 
  H117         -2.7406000000     -0.6706000000     -4.7871000000 
  H118          4.4457000000     -2.9083000000      0.8573000000 
  H119          4.5859000000     -3.2669000000     -1.5305000000 
  H120          4.1917000000     -1.3263000000     -3.1436000000 
  H121          8.3518000000      2.7955000000     -1.1744000000 
  H122          8.4085000000      5.1420000000     -0.5651000000 
  H123          6.3753000000      6.2247000000      0.5376000000 
  H124          4.9925000000      1.3030000000      5.2578000000 
  H125          3.0549000000      2.4031000000      6.2153000000 
  H126          1.3126000000      3.4743000000      4.6877000000 
  H127          3.4879000000     -5.4829000000      4.0158000000 
  H128          2.1543000000     -5.8509000000      1.9664000000 
  H129          1.2018000000     -1.6523000000      1.8353000000 
  H130          2.5161000000     -1.2922000000      3.8795000000 
  H131          3.6781000000     -3.1976000000      4.9817000000 
  H132          0.8946000000     -5.1212000000      0.2070000000 
  H133          2.2883000000     -3.2528000000     -4.3911000000 
  H134          4.4728000000     -4.2793000000     -5.1541000000 
  H135          5.4792000000     -6.1039000000     -3.7541000000 
  H136          4.2924000000     -6.8208000000     -1.6794000000 
  H137         -1.1650000000     -1.9709000000      1.5654000000 
  H138         -1.3275000000     -2.6269000000      3.9251000000 
  H139         -1.3724000000     -5.3468000000      4.1391000000 
  H140         -1.2355000000     -6.2800000000      1.6033000000 
  H141         -1.4617000000     -4.1112000000      0.0268000000 
   
  principal moments of inertia:
        amu*angstrom^2:    19118.17213    22161.68388    29379.03699
                g*cm^2: 3.17464678E-36 3.68003373E-36 4.87850326E-36
   
  rotational constants:
               cm^(-1):      0.00088176      0.00076067      0.00057380
                   GHz:      0.02643448      0.02280418      0.01720203
   
  Molecular weight:    1177.32 amu
   
  Stoichiometry: Si2C72PN3H56SO6
  Molecular Point Group: C1      
  Point Group used: C1
  
  nuclear repulsion energy.......   17185.236525499 hartrees
 
 Non-default options chosen:
   SCF calculation type: DFT(m06-2x)                 
   DFT=M06-2X
   Solvation energy will be computed using PBF
     -solute cavity energy will not be included
     -surface area terms will not be included
   Highest accuracy cutoffs used in SCF
   Solvent: other                                                           
   Internal dielectric constant:    1.000
   Continuum dielectric constant:   2.380
   Solvent probe molecule radius:   2.760
  
 Temporary integer options set:
     73=  2
  
  atom       vdw   vdw2    cov     mass  grid  daf  charge   basis
  C1        1.949  1.900  0.770   12.000    Y    Y      Y    6-31g**
  C2        1.949  1.900  0.770   12.000    Y    Y      Y    6-31g**
  C3        1.949  1.900  0.770   12.000    Y    Y      Y    6-31g**
  C4        1.949  1.900  0.770   12.000    Y    Y      Y    6-31g**
  C5        1.949  1.900  0.770   12.000    Y    Y      Y    6-31g**
  C6        1.949  1.900  0.770   12.000    Y    Y      Y    6-31g**
  C7        1.949  1.900  0.770   12.000    Y    Y      Y    6-31g**
  C8        1.949  1.900  0.770   12.000    Y    Y      Y    6-31g**
  C9        1.949  1.900  0.770   12.000    Y    Y      Y    6-31g**
  C10       1.949  1.900  0.770   12.000    Y    Y      Y    6-31g**
  C11       1.949  1.900  0.770   12.000    Y    Y      Y    6-31g**
  O12       1.702  1.600  0.730   15.995    Y    Y      Y    6-31g**
  Si13      2.217  2.147  1.110   27.977    Y    Y      Y    6-31g**
  C14       1.949  1.900  0.770   12.000    Y    Y      Y    6-31g**
  C15       1.949  1.900  0.770   12.000    Y    Y      Y    6-31g**
  C16       1.949  1.900  0.770   12.000    Y    Y      Y    6-31g**
  C17       1.949  1.900  0.770   12.000    Y    Y      Y    6-31g**
  C18       1.949  1.900  0.770   12.000    Y    Y      Y    6-31g**
  C19       1.949  1.900  0.770   12.000    Y    Y      Y    6-31g**
  C20       1.949  1.900  0.770   12.000    Y    Y      Y    6-31g**
  Si21      2.217  2.147  1.110   27.977    Y    Y      Y    6-31g**
  O22       1.702  1.600  0.730   15.995    Y    Y      Y    6-31g**
  C23       1.949  1.900  0.770   12.000    Y    Y      Y    6-31g**
  C24       1.949  1.900  0.770   12.000    Y    Y      Y    6-31g**
  P25       2.147  2.074  1.060   30.974    Y    Y      Y    6-31g**
  O26       1.702  1.600  0.730   15.995    Y    Y      Y    6-31g**
  O27       1.702  1.600  0.730   15.995    Y    Y      Y    6-31g**
  C28       1.949  1.900  0.770   12.000    Y    Y      Y    6-31g**
  C29       1.949  1.900  0.770   12.000    Y    Y      Y    6-31g**
  C30       1.949  1.900  0.770   12.000    Y    Y      Y    6-31g**
  C31       1.949  1.900  0.770   12.000    Y    Y      Y    6-31g**
  C32       1.949  1.900  0.770   12.000    Y    Y      Y    6-31g**
  C33       1.949  1.900  0.770   12.000    Y    Y      Y    6-31g**
  C34       1.949  1.900  0.770   12.000    Y    Y      Y    6-31g**
  C35       1.949  1.900  0.770   12.000    Y    Y      Y    6-31g**
  C36       1.949  1.900  0.770   12.000    Y    Y      Y    6-31g**
  C37       1.949  1.900  0.770   12.000    Y    Y      Y    6-31g**
  C38       1.949  1.900  0.770   12.000    Y    Y      Y    6-31g**
  C39       1.949  1.900  0.770   12.000    Y    Y      Y    6-31g**
  C40       1.949  1.900  0.770   12.000    Y    Y      Y    6-31g**
  C41       1.949  1.900  0.770   12.000    Y    Y      Y    6-31g**
  C42       1.949  1.900  0.770   12.000    Y    Y      Y    6-31g**
  C43       1.949  1.900  0.770   12.000    Y    Y      Y    6-31g**
  C44       1.949  1.900  0.770   12.000    Y    Y      Y    6-31g**
  C45       1.949  1.900  0.770   12.000    Y    Y      Y    6-31g**
  C46       1.949  1.900  0.770   12.000    Y    Y      Y    6-31g**
  C47       1.949  1.900  0.770   12.000    Y    Y      Y    6-31g**
  C48       1.949  1.900  0.770   12.000    Y    Y      Y    6-31g**
  C49       1.949  1.900  0.770   12.000    Y    Y      Y    6-31g**
  C50       1.949  1.900  0.770   12.000    Y    Y      Y    6-31g**
  C51       1.949  1.900  0.770   12.000    Y    Y      Y    6-31g**
  C52       1.949  1.900  0.770   12.000    Y    Y      Y    6-31g**
  C53       1.949  1.900  0.770   12.000    Y    Y      Y    6-31g**
  C54       1.949  1.900  0.770   12.000    Y    Y      Y    6-31g**
  C55       1.949  1.900  0.770   12.000    Y    Y      Y    6-31g**
  C56       1.949  1.900  0.770   12.000    Y    Y      Y    6-31g**
  C57       1.949  1.900  0.770   12.000    Y    Y      Y    6-31g**
  C58       1.949  1.900  0.770   12.000    Y    Y      Y    6-31g**
  C59       1.949  1.900  0.770   12.000    Y    Y      Y    6-31g**
  C60       1.949  1.900  0.770   12.000    Y    Y      Y    6-31g**
  C61       1.949  1.900  0.770   12.000    Y    Y      Y    6-31g**
  C62       1.949  1.900  0.770   12.000    Y    Y      Y    6-31g**
  C63       1.949  1.900  0.770   12.000    Y    Y      Y    6-31g**
  C64       1.949  1.900  0.770   12.000    Y    Y      Y    6-31g**
  C65       1.949  1.900  0.770   12.000    Y    Y      Y    6-31g**
  C66       1.949  1.900  0.770   12.000    Y    Y      Y    6-31g**
  C67       1.949  1.900  0.770   12.000    Y    Y      Y    6-31g**
  C68       1.949  1.900  0.770   12.000    Y    Y      Y    6-31g**
  C69       1.949  1.900  0.770   12.000    Y    Y      Y    6-31g**
  C70       1.949  1.900  0.770   12.000    Y    Y      Y    6-31g**
  N71       1.831  1.600  0.750   14.003    Y    Y      Y    6-31g**
  S72       2.070  1.900  1.020   31.972    Y    Y      Y    6-31g**
  O73       1.702  1.600  0.730   15.995    Y    Y      Y    6-31g**
  O74       1.702  1.600  0.730   15.995    Y    Y      Y    6-31g**
  C75       1.949  1.900  0.770   12.000    Y    Y      Y    6-31g**
  C76       1.949  1.900  0.770   12.000    Y    Y      Y    6-31g**
  C77       1.949  1.900  0.770   12.000    Y    Y      Y    6-31g**
  C78       1.949  1.900  0.770   12.000    Y    Y      Y    6-31g**
  C79       1.949  1.900  0.770   12.000    Y    Y      Y    6-31g**
  N80       1.831  1.600  0.750   14.003    Y    Y      Y    6-31g**
  N81       1.831  1.600  0.750   14.003    Y    Y      Y    6-31g**
  C82       1.949  1.900  0.770   12.000    Y    Y      Y    6-31g**
  C83       1.949  1.900  0.770   12.000    Y    Y      Y    6-31g**
  C84       1.949  1.900  0.770   12.000    Y    Y      Y    6-31g**
  C85       1.949  1.900  0.770   12.000    Y    Y      Y    6-31g**
  H86       1.597  1.150  0.320    1.008    Y    Y      Y    6-31g**
  H87       1.597  1.150  0.320    1.008    Y    Y      Y    6-31g**
  H88       1.597  1.150  0.320    1.008    Y    Y      Y    6-31g**
  H89       1.597  1.150  0.320    1.008    Y    Y      Y    6-31g**
  H90       1.597  1.150  0.320    1.008    Y    Y      Y    6-31g**
  H91       1.597  1.150  0.320    1.008    Y    Y      Y    6-31g**
  H92       1.597  1.150  0.320    1.008    Y    Y      Y    6-31g**
  H93       1.597  1.150  0.320    1.008    Y    Y      Y    6-31g**
  H94       1.597  1.150  0.320    1.008    Y    Y      Y    6-31g**
  H95       1.597  1.150  0.320    1.008    Y    Y      Y    6-31g**
  H96       1.597  1.150  0.320    1.008    Y    Y      Y    6-31g**
  H97       1.597  1.150  0.320    1.008    Y    Y      Y    6-31g**
  H98       1.597  1.150  0.320    1.008    Y    Y      Y    6-31g**
  H99       1.597  1.150  0.320    1.008    Y    Y      Y    6-31g**
  H100      1.597  1.150  0.320    1.008    Y    Y      Y    6-31g**
  H101      1.597  1.150  0.320    1.008    Y    Y      Y    6-31g**
  H102      1.597  1.150  0.320    1.008    Y    Y      Y    6-31g**
  H103      1.597  1.150  0.320    1.008    Y    Y      Y    6-31g**
  H104      1.597  1.150  0.320    1.008    Y    Y      Y    6-31g**
  H105      1.597  1.150  0.320    1.008    Y    Y      Y    6-31g**
  H106      1.597  1.150  0.320    1.008    Y    Y      Y    6-31g**
  H107      1.597  1.150  0.320    1.008    Y    Y      Y    6-31g**
  H108      1.597  1.150  0.320    1.008    Y    Y      Y    6-31g**
  H109      1.597  1.150  0.320    1.008    Y    Y      Y    6-31g**
  H110      1.597  1.150  0.320    1.008    Y    Y      Y    6-31g**
  H111      1.597  1.150  0.320    1.008    Y    Y      Y    6-31g**
  H112      1.597  1.150  0.320    1.008    Y    Y      Y    6-31g**
  H113      1.597  1.150  0.320    1.008    Y    Y      Y    6-31g**
  H114      1.597  1.150  0.320    1.008    Y    Y      Y    6-31g**
  H115      1.597  1.150  0.320    1.008    Y    Y      Y    6-31g**
  H116      1.597  1.150  0.320    1.008    Y    Y      Y    6-31g**
  H117      1.597  1.150  0.320    1.008    Y    Y      Y    6-31g**
  H118      1.597  1.150  0.320    1.008    Y    Y      Y    6-31g**
  H119      1.597  1.150  0.320    1.008    Y    Y      Y    6-31g**
  H120      1.597  1.150  0.320    1.008    Y    Y      Y    6-31g**
  H121      1.597  1.150  0.320    1.008    Y    Y      Y    6-31g**
  H122      1.597  1.150  0.320    1.008    Y    Y      Y    6-31g**
  H123      1.597  1.150  0.320    1.008    Y    Y      Y    6-31g**
  H124      1.597  1.150  0.320    1.008    Y    Y      Y    6-31g**
  H125      1.597  1.150  0.320    1.008    Y    Y      Y    6-31g**
  H126      1.597  1.150  0.320    1.008    Y    Y      Y    6-31g**
  H127      1.597  1.150  0.320    1.008    Y    Y      Y    6-31g**
  H128      1.597  1.150  0.320    1.008    Y    Y      Y    6-31g**
  H129      1.597  1.150  0.320    1.008    Y    Y      Y    6-31g**
  H130      1.597  1.150  0.320    1.008    Y    Y      Y    6-31g**
  H131      1.597  1.150  0.320    1.008    Y    Y      Y    6-31g**
  H132      1.597  1.150  0.320    1.008    Y    Y      Y    6-31g**
  H133      1.597  1.150  0.320    1.008    Y    Y      Y    6-31g**
  H134      1.597  1.150  0.320    1.008    Y    Y      Y    6-31g**
  H135      1.597  1.150  0.320    1.008    Y    Y      Y    6-31g**
  H136      1.597  1.150  0.320    1.008    Y    Y      Y    6-31g**
  H137      1.597  1.150  0.320    1.008    Y    Y      Y    6-31g**
  H138      1.597  1.150  0.320    1.008    Y    Y      Y    6-31g**
  H139      1.597  1.150  0.320    1.008    Y    Y      Y    6-31g**
  H140      1.597  1.150  0.320    1.008    Y    Y      Y    6-31g**
  H141      1.597  1.150  0.320    1.008    Y    Y      Y    6-31g**
  
  Peak memory usage:    526 Mb
  
  end of program pre
   
 Time(pre)  user:        0.0  user+sys:        0.0  wallclock:        0.5
  
  start of program onee
  
  smallest eigenvalue of S:    2.249E-04
  number of canonical orbitals.....         1565
  Peak memory usage:    700 Mb
  
  end of program onee
   
 Time(onee)  user:       21.0  user+sys:       22.0  wallclock:       23.0
  
  start of program hfig
  
  initial wavefunction generated automatically from atomic wavefunctions
 
  Irreducible     Total no   No of occupied orbitals 
  representation  orbitals   Shell_1  Shell_2    ...
  No Symm         1565        308
  ------------------------
  Orbital occupation/shell    1.000
 
  Peak memory usage:    639 Mb
  
  end of program hfig
   
 Time(hfig)  user:       29.0  user+sys:       29.0  wallclock:       30.0
  
  start of program probe
  
  Peak memory usage:    633 Mb
  
  end of program probe
   
 Time(probe)  user:       22.0  user+sys:       22.0  wallclock:       23.7
  
  start of program grid
  
  
   grid     grid set  grid #  grid sym
  ------    --------  ------  --------
  coarse        0        0        1
  medium        2        1        1
  fine          0        0        1
  ultrafine     4        2        1
  charge       -1        3        1
  gradient      4        2        1
  density       0        0        1
  DFT-fine    -13        4        1
  DFT-med.    -13        4        1
  DFT-grad    -13        4        1
  DFT-der2      0        0        1
  DFT-cphf      0        0        1
  LMP2-enrg     4        2        1
  LMP2-grad     2        1        1
  DFT-cphf2     0        0        1
  PBF-dens      0        0        1
  plotting      0        0        1
  
   
  number of gridpoints: 
     atom        C1       C2       C3       C4       C5       C6       C7
  grid # 1       97      101       94      101      100       96       92
  grid # 2      338      360      336      367      357      335      335
  grid # 3       31       25       40       46       14       47       19
  grid # 4    48124    48124    48124    48124    48124    48124    48124
   
  number of gridpoints: 
     atom        C8       C9      C10      C11      O12     Si13      C14
  grid # 1       94       97      100      100      112      474      102
  grid # 2      335      359      354      358      442      474      359
  grid # 3       49       18       12       10       60       12       32
  grid # 4    48124    48124    48124    48124    47716    38542    48124
   
  number of gridpoints: 
     atom       C15      C16      C17      C18      C19      C20     Si21
  grid # 1       97      102       97       94       97      100      470
  grid # 2      355      366      336      334      340      362      470
  grid # 3       16       41       32       24       47       14        7
  grid # 4    48124    48124    48124    48124    48124    48124    38542
   
  number of gridpoints: 
     atom       O22      C23      C24      P25      O26      O27      C28
  grid # 1      113       95       94      443      117      114       99
  grid # 2      438      338      339      443      444      437      359
  grid # 3       55       42       46        9       59       68        8
  grid # 4    47716    48124    48124    38640    47716    47716    48124
   
  number of gridpoints: 
     atom       C29      C30      C31      C32      C33      C34      C35
  grid # 1      102      101      100      100      101       92       94
  grid # 2      360      360      358      358      360      334      328
  grid # 3       21       17        7       11       15       18       11
  grid # 4    48124    48124    48124    48124    48124    48124    48124
   
  number of gridpoints: 
     atom       C36      C37      C38      C39      C40      C41      C42
  grid # 1       93       96       94       95       93       94       92
  grid # 2      336      339      334      335      333      330      336
  grid # 3       32       29       27       24       15       10       25
  grid # 4    48124    48124    48124    48124    48124    48124    48124
   
  number of gridpoints: 
     atom       C43      C44      C45      C46      C47      C48      C49
  grid # 1       94       92       96       93       93       92       94
  grid # 2      333      335      337      331      332      333      336
  grid # 3       22       19       28       25       25       22       43
  grid # 4    48124    48124    48124    48124    48124    48124    48124
   
  number of gridpoints: 
     atom       C50      C51      C52      C53      C54      C55      C56
  grid # 1       94       94       93       93       93       94       94
  grid # 2      336      336      334      333      335      333      333
  grid # 3       46       42       28       29       35       23       22
  grid # 4    48124    48124    48124    48124    48124    48124    48124
   
  number of gridpoints: 
     atom       C57      C58      C59      C60      C61      C62      C63
  grid # 1       92       94       94       93       93       94       94
  grid # 2      333      335      336      335      333      336      336
  grid # 3       23       43       44       38       31       37       35
  grid # 4    48124    48124    48124    48124    48124    48124    48124
   
  number of gridpoints: 
     atom       C64      C65      C66      C67      C68      C69      C70
  grid # 1       95       95       98       95       95       96       91
  grid # 2      330      333      355      324      330      330      322
  grid # 3       26       16        7        7       17       27        6
  grid # 4    48124    48124    48124    48124    48124    48124    48124
   
  number of gridpoints: 
     atom       N71      S72      O73      O74      C75      C76      C77
  grid # 1      100      436      119      120       98       96       96
  grid # 2      360      436      482      483      359      327      330
  grid # 3       13       13      169      121       24       29       31
  grid # 4    47928    48492    47716    47716    48124    48124    48124
   
  number of gridpoints: 
     atom       C78      C79      N80      N81      C82      C83      C84
  grid # 1       96       96      112       97       94       93       93
  grid # 2      328      336      413      349      327      330      331
  grid # 3       30       29       78       15       12       19       19
  grid # 4    48124    48124    47928    47928    48124    48124    48124
   
  number of gridpoints: 
     atom       C85      H86      H87      H88      H89      H90      H91
  grid # 1       92      111      118      118      110      118      114
  grid # 2      324      433      452      446      429      453      434
  grid # 3        8      232      417      362      203      424      248
  grid # 4    48124    48426    48426    48426    48426    48426    48426
   
  number of gridpoints: 
     atom       H92      H93      H94      H95      H96      H97      H98
  grid # 1      109      118      118      118       98      111      112
  grid # 2      425      443      449      450      389      428      428
  grid # 3      171      362      411      417       66      194      226
  grid # 4    48426    48426    48426    48426    48426    48426    48426
   
  number of gridpoints: 
     atom       H99     H100     H101     H102     H103     H104     H105
  grid # 1      109      111      107      109      107      110      111
  grid # 2      431      431      417      423      416      436      436
  grid # 3      210      221      116      173      101      249      238
  grid # 4    48426    48426    48426    48426    48426    48426    48426
   
  number of gridpoints: 
     atom      H106     H107     H108     H109     H110     H111     H112
  grid # 1      112      112      111      117      117      117      118
  grid # 2      437      430      422      448      450      451      452
  grid # 3      270      242      183      352      374      390      419
  grid # 4    48426    48426    48426    48426    48426    48426    48426
   
  number of gridpoints: 
     atom      H113     H114     H115     H116     H117     H118     H119
  grid # 1      118      118      113      117      118      113      111
  grid # 2      453      453      434      448      452      437      429
  grid # 3      424      423      257      360      406      258      193
  grid # 4    48426    48426    48426    48426    48426    48426    48426
   
  number of gridpoints: 
     atom      H120     H121     H122     H123     H124     H125     H126
  grid # 1      114      118      118      118      117      118      118
  grid # 2      440      453      453      452      452      453      452
  grid # 3      283      420      425      420      391      416      403
  grid # 4    48426    48426    48426    48426    48426    48426    48426
   
  number of gridpoints: 
     atom      H127     H128     H129     H130     H131     H132     H133
  grid # 1      118      111      105      112      118      106      114
  grid # 2      449      436      405      435      449      410      439
  grid # 3      409      273       69      229      398      103      276
  grid # 4    48426    48426    48426    48426    48426    48426    48426
   
  number of gridpoints: 
     atom      H134     H135     H136     H137     H138     H139     H140
  grid # 1      117      117      117      101      111      116      116
  grid # 2      452      452      452      395      435      458      454
  grid # 3      401      420      424       62      232      418      383
  grid # 4    48426    48426    48426    48426    48426    48426    48426
   
  number of gridpoints: 
     atom      H141    total
  grid # 1      104    16058
  grid # 2      416    54668
  grid # 3       87    19055
  grid # 4    48426  6771080
   
  Peak memory usage:    666 Mb
  
  end of program grid
   
 Time(grid)  user:      878.0  user+sys:      880.0  wallclock:      883.9
  
  start of program rwr
  
  dpptrf failed in rinv with info = 137
  switching to SVD for RwR matrix  80 for grid  2
  Peak memory usage:    648 Mb
  
  end of program rwr
   
 Time(rwr)  user:       54.0  user+sys:       58.0  wallclock:       60.5
  
  start of program scf
  
 number of electrons..........        616
 number of alpha electrons....        308
 number of beta electrons.....        308
 number of orbitals, total....       1565
 number of doubly-occ'd orbs..        308
 number of open shell orbs....          0
 number of occupied orbitals..        308
 number of virtual orbitals...       1257
 number of hamiltonians.......          1
 number of shells.............          1
 SCF type: DFT=M06-2X
  
       i  u  d  i  g                   
       t  p  i  c  r                                 RMS    maximum
       e  d  i  u  i                       energy  density   DIIS  
       r  t  s  t  d       total energy    change  change    error 
  
etot    1  N  N  1  U   -4700.03934919100           2.3E-03  1.4E-01
etot    2  N  Y  1  U   -4705.20829149073  5.2E+00  3.8E-03  8.0E-02
etot    3  N  Y  1  U   -4693.27505594121 -1.2E+01  3.7E-03  9.7E-02
etot    4  N  Y  1  U   -4704.08501100125  1.1E+01  1.6E-03  8.1E-02
etot    5  N  Y  1  U   -4709.57473486599  5.5E+00  5.9E-04  2.3E-02
etot    6  N  Y  1  U   -4709.93448747257  3.6E-01  2.6E-04  2.0E-02
etot    7  N  Y  1  U   -4710.00574964727  7.1E-02  1.2E-04  6.2E-03
etot    8  N  Y  1  U   -4710.03077675566  2.5E-02  7.8E-05  3.9E-03
etot    9  N  Y  1  U   -4710.04000395915  9.2E-03  3.9E-05  1.5E-03
etot   10  N  Y  1  U   -4710.04159029654  1.6E-03  1.4E-05  4.6E-04
etot   11  N  Y  1  U   -4710.04179675679  2.1E-04  4.8E-06  1.6E-04
etot   12  N  N  1  U   -4710.04181902251  2.2E-05  0.0E+00  0.0E+00
  
  
 Energy components, in hartrees:
   (A)  Nuclear repulsion............   17185.23652549899
   (E)  Total one-electron terms.....  -40710.07997800071
   (F)    Electron-nuclear...........  -45385.39161526395
   (H)    Kinetic....................    4675.31163726327
   (I)  Total two-electron terms.....   18814.80163347921
   (J)    Coulomb....................   19388.14990472108
   (K)    Exchange+Correlation.......    -573.34827124187
   (L)  Electronic energy............  -21895.27834452150  (E+I)
   (M)  -V/T.........................       2.00742842070  (-(A+F+I)/H)
   (N)  Total energy.................   -4710.04181902251  (A+L)
  
 SCFE: SCF energy: DFT(m06-2x)     -4710.04181902251 hartrees   iterations:  12
  
 
 HOMO energy:    -0.24469
 LUMO energy:    -0.05554
 
  Orbital energies (hartrees): 
   -90.15948   -78.18080   -67.00024   -67.00020   -19.67083   -19.66494
   -19.64088   -19.63751   -19.58566   -19.58241   -14.80768   -14.79494
   -14.79358   -10.64943   -10.63081   -10.61511   -10.61206   -10.60903
   -10.60663   -10.59802   -10.59089   -10.59002   -10.58932   -10.57479
   -10.56962   -10.56768   -10.56353   -10.56283   -10.56177   -10.56037
   -10.55902   -10.55877   -10.55839   -10.55667   -10.55561   -10.55414
   -10.55223   -10.55116   -10.54952   -10.54775   -10.54713   -10.54674
   -10.54617   -10.54611   -10.54589   -10.54577   -10.54554   -10.54521
   -10.54515   -10.54511   -10.54461   -10.54452   -10.54449   -10.54405
   -10.54373   -10.54360   -10.54357   -10.54277   -10.54276   -10.54271
   -10.54262   -10.54237   -10.54047   -10.54042   -10.53971   -10.53962
   -10.53894   -10.53869   -10.53803   -10.53758   -10.53694   -10.53622
   -10.53179   -10.53175   -10.53061   -10.52950   -10.52861   -10.52837
   -10.52811   -10.52630   -10.52510   -10.52496   -10.52429   -10.52156
   -10.51723    -8.46952    -6.95972    -6.39164    -6.39095    -6.39015
    -5.53161    -5.53130    -5.07827    -5.07721    -5.07573    -3.84141
    -3.84118    -3.84114    -3.84079    -3.84079    -3.84053    -1.23333
    -1.20653    -1.16266    -1.12156    -1.10074    -1.08587    -1.08393
    -1.04920    -1.03463    -0.97301    -0.96711    -0.95873    -0.94079
    -0.93893    -0.93525    -0.93481    -0.93149    -0.93056    -0.92286
    -0.91267    -0.90193    -0.89670    -0.88799    -0.88116    -0.87379
    -0.84894    -0.84529    -0.83798    -0.83666    -0.83277    -0.83141
    -0.82980    -0.82813    -0.82742    -0.82428    -0.82236    -0.82226
    -0.82080    -0.81987    -0.81655    -0.81617    -0.81508    -0.80999
    -0.79276    -0.79100    -0.75698    -0.74366    -0.72637    -0.70727
    -0.69982    -0.69224    -0.69103    -0.68939    -0.68334    -0.67842
    -0.67542    -0.67491    -0.67118    -0.67033    -0.66914    -0.66648
    -0.66512    -0.66200    -0.66094    -0.65721    -0.65631    -0.65455
    -0.65402    -0.64942    -0.64905    -0.64157    -0.63788    -0.62860
    -0.61423    -0.61114    -0.60199    -0.59924    -0.59692    -0.58955
    -0.57814    -0.57641    -0.57507    -0.57269    -0.57204    -0.57074
    -0.56897    -0.56652    -0.56288    -0.55258    -0.54323    -0.54151
    -0.54087    -0.53946    -0.53253    -0.53121    -0.52879    -0.52384
    -0.52172    -0.51854    -0.51335    -0.51277    -0.51077    -0.50847
    -0.50689    -0.50575    -0.50285    -0.50205    -0.50006    -0.49894
    -0.49716    -0.49559    -0.49468    -0.49408    -0.49295    -0.49223
    -0.48942    -0.48793    -0.48743    -0.48638    -0.48499    -0.48402
    -0.48106    -0.47884    -0.47744    -0.47712    -0.47571    -0.47453
    -0.47335    -0.47191    -0.46950    -0.46476    -0.46323    -0.46251
    -0.46088    -0.45598    -0.44883    -0.44511    -0.44412    -0.44203
    -0.44027    -0.43934    -0.43674    -0.42976    -0.42764    -0.42551
    -0.42135    -0.42082    -0.41935    -0.41826    -0.41525    -0.41441
    -0.41264    -0.41019    -0.40665    -0.40444    -0.39834    -0.39678
    -0.39522    -0.39462    -0.39180    -0.38965    -0.38824    -0.38635
    -0.38478    -0.38420    -0.38301    -0.38106    -0.37842    -0.37729
    -0.37500    -0.37201    -0.36981    -0.36781    -0.36739    -0.36019
    -0.34734    -0.34594    -0.34420    -0.34110    -0.33897    -0.33614
    -0.33521    -0.33373    -0.33122    -0.33096    -0.32944    -0.32378
    -0.31896    -0.31014    -0.30826    -0.30037    -0.29900    -0.29571
    -0.29425    -0.29220    -0.29156    -0.29080    -0.28888    -0.28563
    -0.28218    -0.28102    -0.27955    -0.27691    -0.27279    -0.27133
    -0.26386    -0.24469    -0.05554    -0.02051    -0.01018    -0.00653
     0.00684     0.01958     0.02243     0.02382     0.02617     0.02723
 
  Peak memory usage:    844 Mb
  
  end of program scf
   
 Time(scf)  user:    26101.0  user+sys:    26208.0  wallclock:    27075.8
  
  start of program ch
  
  gridpoints used for charge fit        16612
    out of a possible maximum of        19055
  
   Electrostatic potential fitting constrained to reproduce
     total charge:                yes
     dipole moment:               no 
     traceless quadrupole moment: no 
     traceless octapole moment:   no 
  
  Atomic charges from electrostatic potential: 
   
 Atom       C1           C2           C3           C4           C5      
 Charge   -0.08317     -0.07318     -0.20228      0.23787      0.16005
   
 Atom       C6           C7           C8           C9           C10     
 Charge   -0.25076     -0.39352     -0.08173     -0.04203     -0.17131
   
 Atom       C11          O12          Si13         C14          C15     
 Charge    0.14131     -0.23749     -0.13108      0.07251      0.14738
   
 Atom       C16          C17          C18          C19          C20     
 Charge    0.26192     -0.14082     -0.46296     -0.25179      0.14497
   
 Atom       Si21         O22          C23          C24          P25     
 Charge   -0.21626     -0.35863     -0.17142     -0.10114      1.09267
   
 Atom       O26          O27          C28          C29          C30     
 Charge   -0.65834     -0.73268      0.17126      0.12619      0.02819
   
 Atom       C31          C32          C33          C34          C35     
 Charge    0.28912      0.13571      0.22140     -0.14210     -0.17507
   
 Atom       C36          C37          C38          C39          C40     
 Charge   -0.14512     -0.16898     -0.00758     -0.22229     -0.24916
   
 Atom       C41          C42          C43          C44          C45     
 Charge   -0.16368     -0.14707     -0.23386     -0.18863     -0.21181
   
 Atom       C46          C47          C48          C49          C50     
 Charge   -0.14686     -0.15456     -0.10840     -0.14143     -0.13499
   
 Atom       C51          C52          C53          C54          C55     
 Charge   -0.13298     -0.16233     -0.10576     -0.09330     -0.15029
   
 Atom       C56          C57          C58          C59          C60     
 Charge   -0.06117     -0.19169     -0.12953     -0.16159     -0.07776
   
 Atom       C61          C62          C63          C64          C65     
 Charge   -0.13158     -0.15301     -0.10467     -0.18846     -0.22113
   
 Atom       C66          C67          C68          C69          C70     
 Charge    0.31492     -0.05822     -0.20568     -0.08485     -0.25833
   
 Atom       N71          S72          O73          O74          C75     
 Charge   -0.32966      0.64420     -0.43525     -0.38746      0.47051
   
 Atom       C76          C77          C78          C79          N80     
 Charge   -0.37051      0.14153     -0.39703      0.33517     -0.52645
   
 Atom       N81          C82          C83          C84          C85     
 Charge   -0.06241      0.06203     -0.26950     -0.18256     -0.04924
   
 Atom       H86          H87          H88          H89          H90     
 Charge    0.11065      0.14803      0.14731      0.18912      0.12564
   
 Atom       H91          H92          H93          H94          H95     
 Charge    0.11798      0.21078      0.14603      0.14291      0.12675
   
 Atom       H96          H97          H98          H99          H100    
 Charge    0.46975      0.13220      0.13775      0.11964      0.10537
   
 Atom       H101         H102         H103         H104         H105    
 Charge    0.01149      0.16506      0.13852      0.13263      0.09906
   
 Atom       H106         H107         H108         H109         H110    
 Charge    0.14903      0.11973      0.14320      0.13347      0.12878
   
 Atom       H111         H112         H113         H114         H115    
 Charge    0.11856      0.13092      0.12875      0.13128      0.12598
   
 Atom       H116         H117         H118         H119         H120    
 Charge    0.12092      0.12153      0.12730      0.06540      0.13356
   
 Atom       H121         H122         H123         H124         H125    
 Charge    0.12913      0.13273      0.11842      0.12729      0.13053
   
 Atom       H126         H127         H128         H129         H130    
 Charge    0.12467      0.15427      0.15533      0.12002      0.14613
   
 Atom       H131         H132         H133         H134         H135    
 Charge    0.12999      0.16359      0.18775      0.11104      0.18510
   
 Atom       H136         H137         H138         H139         H140    
 Charge    0.06336      0.25117      0.13221      0.17940      0.18554
   
 Atom       H141    
 Charge    0.20292
  
  sum of atomic charges:     0.000000
   
 RMS Error   9.69E-04 hartrees
 
  Peak memory usage:    584 Mb
  
  end of program ch
   
 Time(ch)  user:       18.0  user+sys:       19.0  wallclock:       19.9
  
  start of program post
  
  Writing input files for PBF
  Peak memory usage:    534 Mb
  
  end of program post
   
 Time(post)  user:        0.0  user+sys:        0.0  wallclock:        0.2

  start of program pbf

Pbf Version 4.00

Molecular surface area:      841.22236   [A2]
Reaction field energy:       -16.77489   [kT]
  Peak memory usage: 557 Mb

  end of program pbf

 Time(pbf)  user:       17.9  user+sys:       17.9  wallclock:       18.8
  
  start of program solv
  
   number of surface charges from PBF   13324
   sum of surface charges     -0.00048
   
  nuclear repulsion energy.......   17185.236525499 hartrees
  Peak memory usage:    694 Mb
  
  end of program solv
   
 Time(solv)  user:       35.0  user+sys:       35.0  wallclock:       35.6
  
  start of program scf
  
  
       i  u  d  i  g                   
       t  p  i  c  r                                 RMS    maximum
       e  d  i  u  i                       energy  density   DIIS  
       r  t  s  t  d       total energy    change  change    error 
  
etot    1  N  N  1  U   -4710.07712397918           5.2E-05  1.0E-03
etot    2  N  Y  1  U   -4710.07784463866  7.2E-04  1.7E-05  8.5E-04
etot    3  N  Y  1  U   -4710.07803998701  2.0E-04  5.7E-06  4.4E-04
etot    4  N  N  1  U   -4710.07808677317  4.7E-05  0.0E+00  0.0E+00
  
  
 Energy components, in hartrees:
   (A)  Total zero-electron terms....   17188.17876668154
   (B)    Nuclear-nuclear............   17185.23652549899
   (C)    Nuclear-solvent............       2.94224118255
   (E)  Total one-electron terms.....  -40714.68209760835
   (F)    Electron-nuclear...........  -45387.04930517227
   (G)    Electron-solvent...........      -2.97946848228
   (H)    Kinetic....................    4675.34667604621
   (I)  Total two-electron terms.....   18816.42524415363
   (J)    Coulomb....................   19389.79077395509
   (K)    Exchange+Correlation.......    -573.36552980146
   (L)  Electronic energy............  -21898.25685345471  (E+I)
   (N)  Total quantum mech. energy...   -4710.07808677317  (A+L)
   (O)  Gas phase energy.............   -4710.04181902251
   (P)  Solution phase energy........   -4710.05947312330  (Q+R+S)
   (Q)    Total solute energy........   -4710.04085947344  (N-C-G)
   (R)    Total solvent energy.......      -0.01861364987  (C/2+G/2)
   (S)    Solute cavity energy.......       0.00000000000
   (U)  Reorganization energy........       0.00095954907  (Q-O)
   (V)  Solvation energy.............      -0.01765410079  (P-O)
  
 SCFE:  Solution phase energy: DFT(m06-2x)      -4710.05947312330 hartrees
        SCF iterations:   4
  
 
 HOMO energy:    -0.24867
 LUMO energy:    -0.05456
 
  Orbital energies (hartrees): 
   -90.16211   -78.18430   -67.00422   -67.00408   -19.67428   -19.66888
   -19.64447   -19.64141   -19.58935   -19.58646   -14.80621   -14.79337
   -14.79101   -10.64829   -10.62790   -10.61612   -10.61307   -10.60960
   -10.60614   -10.59112   -10.58999   -10.58486   -10.58268   -10.57338
   -10.56776   -10.56638   -10.56602   -10.56373   -10.56209   -10.56172
   -10.56004   -10.55909   -10.55797   -10.55792   -10.55735   -10.55606
   -10.55598   -10.55516   -10.55221   -10.55066   -10.54988   -10.54955
   -10.54901   -10.54891   -10.54855   -10.54846   -10.54841   -10.54806
   -10.54790   -10.54778   -10.54771   -10.54764   -10.54763   -10.54715
   -10.54709   -10.54674   -10.54644   -10.54639   -10.54605   -10.54595
   -10.54558   -10.54491   -10.54490   -10.54470   -10.54390   -10.54248
   -10.54199   -10.54134   -10.54062   -10.54017   -10.53954   -10.53843
   -10.53621   -10.53604   -10.53542   -10.53414   -10.53337   -10.53272
   -10.53059   -10.52987   -10.52986   -10.52953   -10.52935   -10.52490
   -10.52211    -8.47208    -6.96325    -6.39418    -6.39357    -6.39264
    -5.53544    -5.53531    -5.08180    -5.08073    -5.07925    -3.84524
    -3.84515    -3.84501    -3.84480    -3.84462    -3.84455    -1.23644
    -1.21034    -1.16652    -1.12529    -1.10044    -1.08705    -1.08217
    -1.05098    -1.03690    -0.97680    -0.96611    -0.96258    -0.94310
    -0.94262    -0.93948    -0.93844    -0.93387    -0.92784    -0.92534
    -0.91636    -0.90571    -0.89310    -0.88660    -0.88498    -0.87244
    -0.84887    -0.84779    -0.84126    -0.83952    -0.83466    -0.83345
    -0.83197    -0.83096    -0.83091    -0.82705    -0.82610    -0.82557
    -0.82435    -0.82292    -0.82037    -0.81942    -0.81914    -0.81470
    -0.79469    -0.79176    -0.75491    -0.73807    -0.72977    -0.70626
    -0.70247    -0.69558    -0.69287    -0.68930    -0.68606    -0.67892
    -0.67792    -0.67421    -0.67404    -0.67299    -0.67142    -0.67007
    -0.66798    -0.66454    -0.66063    -0.66002    -0.65875    -0.65820
    -0.65652    -0.65300    -0.65230    -0.64123    -0.64031    -0.62707
    -0.61591    -0.61201    -0.60502    -0.60000    -0.59801    -0.59275
    -0.57910    -0.57778    -0.57547    -0.57529    -0.57421    -0.57183
    -0.56850    -0.56808    -0.56452    -0.55573    -0.54587    -0.54383
    -0.54144    -0.53609    -0.53502    -0.53209    -0.52849    -0.52664
    -0.52332    -0.52012    -0.51564    -0.51512    -0.51301    -0.51048
    -0.50773    -0.50649    -0.50539    -0.50252    -0.50150    -0.50036
    -0.49862    -0.49721    -0.49626    -0.49585    -0.49449    -0.49144
    -0.49096    -0.49025    -0.48962    -0.48824    -0.48716    -0.48689
    -0.48450    -0.48067    -0.48003    -0.47901    -0.47886    -0.47789
    -0.47513    -0.47375    -0.46861    -0.46561    -0.46444    -0.46290
    -0.45962    -0.45828    -0.45181    -0.44829    -0.44707    -0.44512
    -0.44330    -0.44151    -0.43850    -0.43205    -0.42972    -0.42859
    -0.42534    -0.42333    -0.42162    -0.42099    -0.41838    -0.41756
    -0.41553    -0.41362    -0.40795    -0.40658    -0.40145    -0.39883
    -0.39800    -0.39750    -0.39452    -0.39116    -0.38983    -0.38929
    -0.38786    -0.38712    -0.38612    -0.38348    -0.38166    -0.38084
    -0.37827    -0.37542    -0.37339    -0.36989    -0.36421    -0.36367
    -0.35004    -0.34907    -0.34432    -0.34267    -0.33949    -0.33871
    -0.33811    -0.33711    -0.33528    -0.33457    -0.32992    -0.32600
    -0.32279    -0.30975    -0.30785    -0.30422    -0.30126    -0.30007
    -0.29875    -0.29643    -0.29547    -0.29409    -0.29208    -0.28859
    -0.28589    -0.28528    -0.28400    -0.27928    -0.27661    -0.27460
    -0.26783    -0.24867    -0.05456    -0.01671    -0.01416    -0.00173
     0.00286     0.01587     0.02011     0.02195     0.02322     0.02530
 
  Peak memory usage:    839 Mb
  
  end of program scf
   
 Time(scf)  user:     6865.0  user+sys:     6895.0  wallclock:     7265.1
  
  start of program sole
  
    SCRF                   solvation energy
  iteration          Hartrees            kcal/mol
     0               0.0000000            0.0000
     1              -0.0176541          -11.0781
  
  solvation energy not yet converged... 
  
  Peak memory usage:    634 Mb
  
  end of program sole
   
 Time(sole)  user:        0.0  user+sys:        0.0  wallclock:        0.2
  
  start of program ch
  
  gridpoints used for charge fit        16612
    out of a possible maximum of        16612
  
   Electrostatic potential fitting constrained to reproduce
     total charge:                yes
     dipole moment:               no 
     traceless quadrupole moment: no 
     traceless octapole moment:   no 
  
  Atomic charges from electrostatic potential: 
   
 Atom       C1           C2           C3           C4           C5      
 Charge   -0.08384     -0.07336     -0.21124      0.23867      0.16744
   
 Atom       C6           C7           C8           C9           C10     
 Charge   -0.25879     -0.41048     -0.08624     -0.06247     -0.17314
   
 Atom       C11          O12          Si13         C14          C15     
 Charge    0.16763     -0.22723     -0.15528      0.07078      0.13187
   
 Atom       C16          C17          C18          C19          C20     
 Charge    0.26452     -0.14320     -0.47421     -0.26037      0.16999
   
 Atom       Si21         O22          C23          C24          P25     
 Charge   -0.24552     -0.35362     -0.17958     -0.10681      1.09215
   
 Atom       O26          O27          C28          C29          C30     
 Charge   -0.66379     -0.73881      0.18814      0.11872      0.03964
   
 Atom       C31          C32          C33          C34          C35     
 Charge    0.30664      0.13643      0.23520     -0.15790     -0.18039
   
 Atom       C36          C37          C38          C39          C40     
 Charge   -0.14573     -0.16491     -0.01446     -0.23503     -0.26100
   
 Atom       C41          C42          C43          C44          C45     
 Charge   -0.16056     -0.14484     -0.23693     -0.19830     -0.22079
   
 Atom       C46          C47          C48          C49          C50     
 Charge   -0.15022     -0.16729     -0.10858     -0.14975     -0.14092
   
 Atom       C51          C52          C53          C54          C55     
 Charge   -0.14393     -0.16736     -0.11607     -0.09593     -0.15988
   
 Atom       C56          C57          C58          C59          C60     
 Charge   -0.06443     -0.20415     -0.14035     -0.16834     -0.08472
   
 Atom       C61          C62          C63          C64          C65     
 Charge   -0.13848     -0.16199     -0.10760     -0.19448     -0.22652
   
 Atom       C66          C67          C68          C69          C70     
 Charge    0.32536     -0.06445     -0.22416     -0.08351     -0.24704
   
 Atom       N71          S72          O73          O74          C75     
 Charge   -0.33409      0.66115     -0.45639     -0.39486      0.46564
   
 Atom       C76          C77          C78          C79          N80     
 Charge   -0.36946      0.14480     -0.40252      0.34567     -0.55065
   
 Atom       N81          C82          C83          C84          C85     
 Charge   -0.06608      0.07617     -0.27606     -0.18392     -0.05978
   
 Atom       H86          H87          H88          H89          H90     
 Charge    0.11343      0.15610      0.15341      0.19723      0.13354
   
 Atom       H91          H92          H93          H94          H95     
 Charge    0.11933      0.21727      0.15273      0.15117      0.13460
   
 Atom       H96          H97          H98          H99          H100    
 Charge    0.47531      0.13520      0.13959      0.12245      0.10410
   
 Atom       H101         H102         H103         H104         H105    
 Charge    0.01539      0.17184      0.14582      0.13248      0.09686
   
 Atom       H106         H107         H108         H109         H110    
 Charge    0.15252      0.12344      0.14488      0.14177      0.13828
   
 Atom       H111         H112         H113         H114         H115    
 Charge    0.12429      0.13881      0.13662      0.13979      0.12788
   
 Atom       H116         H117         H118         H119         H120    
 Charge    0.12779      0.12795      0.13216      0.06987      0.14161
   
 Atom       H121         H122         H123         H124         H125    
 Charge    0.13761      0.14037      0.12582      0.13583      0.13856
   
 Atom       H126         H127         H128         H129         H130    
 Charge    0.13066      0.16264      0.16184      0.11894      0.15514
   
 Atom       H131         H132         H133         H134         H135    
 Charge    0.13589      0.15938      0.19046      0.12086      0.19506
   
 Atom       H136         H137         H138         H139         H140    
 Charge    0.06963      0.25188      0.13455      0.18724      0.19365
   
 Atom       H141    
 Charge    0.20467
  
  sum of atomic charges:     0.000000
   
 RMS Error   9.86E-04 hartrees
 
  Peak memory usage:    583 Mb
  
  end of program ch
   
 Time(ch)  user:       17.0  user+sys:       17.0  wallclock:       18.9
  
  start of program post
  
  Writing input files for PBF
  Peak memory usage:    534 Mb
  
  end of program post
   
 Time(post)  user:        0.0  user+sys:        0.0  wallclock:        0.2

  start of program pbf

Pbf Version 4.00

Molecular surface area:      841.22236   [A2]
Reaction field energy:       -19.02647   [kT]
  Peak memory usage: 557 Mb

  end of program pbf

 Time(pbf)  user:       20.5  user+sys:       20.6  wallclock:       27.7
  
  start of program solv
  
   number of surface charges from PBF   13324
   sum of surface charges     -0.00049
   
  nuclear repulsion energy.......   17185.236525499 hartrees
  Peak memory usage:    694 Mb
  
  end of program solv
   
 Time(solv)  user:       33.0  user+sys:       33.0  wallclock:       34.8
  
  start of program scf
  
  
       i  u  d  i  g                   
       t  p  i  c  r                                 RMS    maximum
       e  d  i  u  i                       energy  density   DIIS  
       r  t  s  t  d       total energy    change  change    error 
  
etot    1  N  N  1  U   -4710.08050633464           6.4E-06  1.1E-04
etot    2  N  N  1  U   -4710.08051256919  6.2E-06  0.0E+00  0.0E+00
  
  
 Energy components, in hartrees:
   (A)  Total zero-electron terms....   17188.46809181489
   (B)    Nuclear-nuclear............   17185.23652549899
   (C)    Nuclear-solvent............       3.23156631590
   (E)  Total one-electron terms.....  -40715.13792270523
   (F)    Electron-nuclear...........  -45387.25813491911
   (G)    Electron-solvent...........      -3.27145304644
   (H)    Kinetic....................    4675.39166526032
   (I)  Total two-electron terms.....   18816.58931832115
   (J)    Coulomb....................   19389.96267813773
   (K)    Exchange+Correlation.......    -573.37335981658
   (L)  Electronic energy............  -21898.54860438408  (E+I)
   (N)  Total quantum mech. energy...   -4710.08051256919  (A+L)
   (O)  Gas phase energy.............   -4710.04181902251
   (P)  Solution phase energy........   -4710.06056920392  (Q+R+S)
   (Q)    Total solute energy........   -4710.04062583866  (N-C-G)
   (R)    Total solvent energy.......      -0.01994336527  (C/2+G/2)
   (S)    Solute cavity energy.......       0.00000000000
   (U)  Reorganization energy........       0.00119318385  (Q-O)
   (V)  Solvation energy.............      -0.01875018141  (P-O)
  
 SCFE:  Solution phase energy: DFT(m06-2x)      -4710.06056920392 hartrees
        SCF iterations:   2
  
 
 HOMO energy:    -0.32328
 LUMO energy:    -0.05520
 
  Orbital energies (hartrees): 
   -74.93661   -68.79384   -65.95495   -63.94882   -24.19281   -20.22072
   -19.70803   -18.86580   -17.21901   -15.19209   -13.77604   -13.59471
   -13.51688   -13.05591   -13.00968   -12.99497   -12.69042   -12.39184
   -12.34217   -12.09299   -11.68853   -11.58614   -11.52777   -11.45747
   -11.39487   -11.03257   -10.94700   -10.76932   -10.75031   -10.70732
   -10.70166   -10.68062   -10.65912   -10.63188   -10.60631   -10.59173
   -10.57666   -10.57259   -10.56804   -10.54217   -10.53230   -10.52680
   -10.52319   -10.51544   -10.51473   -10.51301   -10.51051   -10.50588
   -10.49958   -10.49320   -10.48882   -10.48870   -10.48867   -10.48809
   -10.48258   -10.47813   -10.47651   -10.46546   -10.46484   -10.45158
   -10.44533   -10.43492   -10.43095   -10.42965   -10.42939   -10.41220
   -10.40628   -10.40418   -10.38562   -10.37709   -10.30089   -10.28869
   -10.25136   -10.23345   -10.10160   -10.05285    -9.90949    -9.89426
    -9.85337    -9.83675    -9.80013    -9.54366    -9.44939    -9.29590
    -9.17419    -8.94830    -8.81697    -8.80698    -8.40970    -7.52552
    -7.38959    -7.24039    -7.17065    -6.69943    -6.61081    -6.26072
    -5.64492    -5.44901    -5.29239    -4.35435    -3.88775    -1.27970
    -1.21341    -1.08465    -1.03822    -0.99647    -0.93813    -0.93250
    -0.92132    -0.91849    -0.91334    -0.90489    -0.90279    -0.90064
    -0.89327    -0.88465    -0.87346    -0.86965    -0.86745    -0.85038
    -0.84480    -0.83888    -0.83398    -0.83351    -0.83220    -0.82156
    -0.82053    -0.81834    -0.81678    -0.81476    -0.80786    -0.79625
    -0.79254    -0.77349    -0.76801    -0.75952    -0.75826    -0.75660
    -0.74738    -0.74734    -0.73567    -0.73169    -0.71112    -0.71024
    -0.70764    -0.70195    -0.70127    -0.70056    -0.69780    -0.69221
    -0.68889    -0.68118    -0.68069    -0.68012    -0.67848    -0.66746
    -0.64706    -0.64223    -0.63953    -0.63577    -0.63103    -0.62163
    -0.61543    -0.61451    -0.61091    -0.60979    -0.60855    -0.60650
    -0.60553    -0.60310    -0.60096    -0.59692    -0.59421    -0.59325
    -0.59001    -0.58834    -0.58604    -0.58520    -0.58462    -0.58441
    -0.58263    -0.58236    -0.58075    -0.58047    -0.57435    -0.57258
    -0.57121    -0.57120    -0.56167    -0.55593    -0.55495    -0.55467
    -0.55466    -0.55332    -0.55213    -0.55144    -0.55083    -0.54999
    -0.54940    -0.54285    -0.53961    -0.53636    -0.53632    -0.53632
    -0.53528    -0.53443    -0.52994    -0.52524    -0.52482    -0.52316
    -0.52251    -0.51836    -0.51738    -0.51355    -0.51220    -0.50926
    -0.50873    -0.50659    -0.50591    -0.50421    -0.50177    -0.50147
    -0.49876    -0.49851    -0.49728    -0.49727    -0.49591    -0.49525
    -0.49323    -0.49192    -0.49185    -0.48783    -0.48300    -0.48159
    -0.48144    -0.47806    -0.47785    -0.47636    -0.47374    -0.47123
    -0.47092    -0.47065    -0.46901    -0.46812    -0.46640    -0.46621
    -0.46245    -0.46012    -0.46010    -0.45837    -0.45833    -0.45778
    -0.45660    -0.45578    -0.45374    -0.45277    -0.45090    -0.45069
    -0.45065    -0.45053    -0.45035    -0.44704    -0.44471    -0.44299
    -0.44282    -0.44244    -0.44187    -0.44112    -0.44097    -0.44082
    -0.43954    -0.43900    -0.43842    -0.43578    -0.43189    -0.43126
    -0.43078    -0.42997    -0.42973    -0.42817    -0.42317    -0.42310
    -0.42287    -0.42238    -0.41854    -0.41776    -0.41595    -0.41509
    -0.41488    -0.41326    -0.41142    -0.40882    -0.40813    -0.40278
    -0.40057    -0.40015    -0.39815    -0.39557    -0.38965    -0.36567
    -0.36530    -0.36426    -0.36165    -0.36073    -0.35213    -0.35189
    -0.32859    -0.32328    -0.05520    -0.01674    -0.01440    -0.00147
     0.00251     0.01565     0.01977     0.02173     0.02307     0.02502
 
  Peak memory usage:    839 Mb
  
  end of program scf
   
 Time(scf)  user:     2325.0  user+sys:     2336.0  wallclock:     2462.8
  
  start of program sole
  
    SCRF                   solvation energy
  iteration          Hartrees            kcal/mol
     0               0.0000000            0.0000
     1              -0.0176541          -11.0781
     2              -0.0187502          -11.7659
  
  solvation energy not yet converged... 
  
  Peak memory usage:    634 Mb
  
  end of program sole
   
 Time(sole)  user:        0.0  user+sys:        0.0  wallclock:        1.7
  
  start of program ch
  
  gridpoints used for charge fit        16612
    out of a possible maximum of        16612
  
   Electrostatic potential fitting constrained to reproduce
     total charge:                yes
     dipole moment:               no 
     traceless quadrupole moment: no 
     traceless octapole moment:   no 
  
  Atomic charges from electrostatic potential: 
   
 Atom       C1           C2           C3           C4           C5      
 Charge   -0.08405     -0.07222     -0.21248      0.23735      0.16863
   
 Atom       C6           C7           C8           C9           C10     
 Charge   -0.25960     -0.41284     -0.08660     -0.06554     -0.17215
   
 Atom       C11          O12          Si13         C14          C15     
 Charge    0.17114     -0.22547     -0.15674      0.07019      0.12962
   
 Atom       C16          C17          C18          C19          C20     
 Charge    0.26389     -0.14274     -0.47587     -0.26147      0.17228
   
 Atom       Si21         O22          C23          C24          P25     
 Charge   -0.24816     -0.35178     -0.18104     -0.10688      1.09059
   
 Atom       O26          O27          C28          C29          C30     
 Charge   -0.66367     -0.73958      0.19166      0.11655      0.04128
   
 Atom       C31          C32          C33          C34          C35     
 Charge    0.30890      0.13452      0.23729     -0.16152     -0.18047
   
 Atom       C36          C37          C38          C39          C40     
 Charge   -0.14615     -0.16354     -0.01464     -0.23707     -0.26283
   
 Atom       C41          C42          C43          C44          C45     
 Charge   -0.16165     -0.14412     -0.23689     -0.20016     -0.22237
   
 Atom       C46          C47          C48          C49          C50     
 Charge   -0.14982     -0.16991     -0.10908     -0.15084     -0.14158
   
 Atom       C51          C52          C53          C54          C55     
 Charge   -0.14570     -0.16795     -0.11872     -0.09657     -0.15905
   
 Atom       C56          C57          C58          C59          C60     
 Charge   -0.06683     -0.20442     -0.14171     -0.16858     -0.08538
   
 Atom       C61          C62          C63          C64          C65     
 Charge   -0.13904     -0.16319     -0.10755     -0.19638     -0.22575
   
 Atom       C66          C67          C68          C69          C70     
 Charge    0.32636     -0.06286     -0.22861     -0.08376     -0.24063
   
 Atom       N71          S72          O73          O74          C75     
 Charge   -0.33186      0.66308     -0.45907     -0.39768      0.46416
   
 Atom       C76          C77          C78          C79          N80     
 Charge   -0.37096      0.14484     -0.40322      0.34619     -0.55127
   
 Atom       N81          C82          C83          C84          C85     
 Charge   -0.06364      0.07413     -0.27707     -0.18425     -0.06254
   
 Atom       H86          H87          H88          H89          H90     
 Charge    0.11410      0.15707      0.15398      0.19848      0.13459
   
 Atom       H91          H92          H93          H94          H95     
 Charge    0.11920      0.21817      0.15356      0.15216      0.13554
   
 Atom       H96          H97          H98          H99          H100    
 Charge    0.47561      0.13580      0.13915      0.12266      0.10376
   
 Atom       H101         H102         H103         H104         H105    
 Charge    0.01612      0.17279      0.14701      0.13212      0.09631
   
 Atom       H106         H107         H108         H109         H110    
 Charge    0.15270      0.12378      0.14505      0.14268      0.13983
   
 Atom       H111         H112         H113         H114         H115    
 Charge    0.12512      0.13985      0.13776      0.14102      0.12789
   
 Atom       H116         H117         H118         H119         H120    
 Charge    0.12875      0.12888      0.13227      0.07179      0.14252
   
 Atom       H121         H122         H123         H124         H125    
 Charge    0.13868      0.14130      0.12679      0.13692      0.13963
   
 Atom       H126         H127         H128         H129         H130    
 Charge    0.13125      0.16383      0.16203      0.11836      0.15666
   
 Atom       H131         H132         H133         H134         H135    
 Charge    0.13650      0.15786      0.19076      0.12229      0.19653
   
 Atom       H136         H137         H138         H139         H140    
 Charge    0.07034      0.25227      0.13525      0.18838      0.19444
   
 Atom       H141    
 Charge    0.20493
  
  sum of atomic charges:     0.000000
   
 RMS Error   9.88E-04 hartrees
 
  Peak memory usage:    583 Mb
  
  end of program ch
   
 Time(ch)  user:       17.0  user+sys:       18.0  wallclock:       20.1
  
  start of program post
  
  Writing input files for PBF
  Peak memory usage:    534 Mb
  
  end of program post
   
 Time(post)  user:        0.0  user+sys:        0.0  wallclock:        0.2

  start of program pbf

Pbf Version 4.00

Molecular surface area:      841.22236   [A2]
Reaction field energy:       -19.30456   [kT]
  Peak memory usage: 557 Mb

  end of program pbf

 Time(pbf)  user:       22.9  user+sys:       22.9  wallclock:       23.3
  
  start of program solv
  
   number of surface charges from PBF   13324
   sum of surface charges     -0.00050
   
  nuclear repulsion energy.......   17185.236525499 hartrees
  Peak memory usage:    694 Mb
  
  end of program solv
   
 Time(solv)  user:       34.0  user+sys:       34.0  wallclock:       35.2
  
  start of program scf
  
  
       i  u  d  i  g                   
       t  p  i  c  r                                 RMS    maximum
       e  d  i  u  i                       energy  density   DIIS  
       r  t  s  t  d       total energy    change  change    error 
  
etot    1  N  N  1  U   -4710.08080979202           5.6E-06  1.2E-04
etot    2  N  N  1  U   -4710.08079219444 -1.8E-05  0.0E+00  0.0E+00
  
  
 Energy components, in hartrees:
   (A)  Total zero-electron terms....   17188.50585686446
   (B)    Nuclear-nuclear............   17185.23652549899
   (C)    Nuclear-solvent............       3.26933136547
   (E)  Total one-electron terms.....  -40715.27664503358
   (F)    Electron-nuclear...........  -45387.31767746757
   (G)    Electron-solvent...........      -3.30952156047
   (H)    Kinetic....................    4675.35055399446
   (I)  Total two-electron terms.....   18816.68999597468
   (J)    Coulomb....................   19390.05690465905
   (K)    Exchange+Correlation.......    -573.36690868437
   (L)  Electronic energy............  -21898.58664905890  (E+I)
   (N)  Total quantum mech. energy...   -4710.08079219444  (A+L)
   (O)  Gas phase energy.............   -4710.04181902251
   (P)  Solution phase energy........   -4710.06069709694  (Q+R+S)
   (Q)    Total solute energy........   -4710.04060199944  (N-C-G)
   (R)    Total solvent energy.......      -0.02009509750  (C/2+G/2)
   (S)    Solute cavity energy.......       0.00000000000
   (U)  Reorganization energy........       0.00121702307  (Q-O)
   (V)  Solvation energy.............      -0.01887807443  (P-O)
  
 SCFE:  Solution phase energy: DFT(m06-2x)      -4710.06069709694 hartrees
        SCF iterations:   2
  
 
 HOMO energy:    -0.24899
 LUMO energy:    -0.05398
 
  Orbital energies (hartrees): 
   -90.16163   -78.18430   -67.00451   -67.00435   -19.67426   -19.66913
   -19.64556   -19.64390   -19.58921   -19.58681   -14.80525   -14.79120
   -14.78994   -10.64632   -10.62758   -10.61615   -10.61311   -10.60861
   -10.60666   -10.59028   -10.58951   -10.58485   -10.58149   -10.57175
   -10.56767   -10.56660   -10.56520   -10.56395   -10.56238   -10.56156
   -10.55981   -10.55893   -10.55859   -10.55745   -10.55739   -10.55679
   -10.55627   -10.55579   -10.55301   -10.55081   -10.55034   -10.54967
   -10.54953   -10.54910   -10.54871   -10.54853   -10.54847   -10.54844
   -10.54837   -10.54822   -10.54821   -10.54787   -10.54785   -10.54747
   -10.54744   -10.54691   -10.54659   -10.54644   -10.54622   -10.54612
   -10.54578   -10.54540   -10.54529   -10.54475   -10.54431   -10.54271
   -10.54166   -10.54148   -10.54105   -10.54003   -10.53975   -10.53814
   -10.53640   -10.53621   -10.53598   -10.53469   -10.53453   -10.53371
   -10.53072   -10.53045   -10.53030   -10.53015   -10.52988   -10.52548
   -10.52227    -8.47168    -6.96326    -6.39378    -6.39319    -6.39223
    -5.53588    -5.53546    -5.08180    -5.08074    -5.07926    -3.84568
    -3.84544    -3.84529    -3.84505    -3.84495    -3.84470    -1.23682
    -1.21043    -1.16663    -1.12604    -1.10012    -1.08703    -1.08147
    -1.05032    -1.03644    -0.97708    -0.96560    -0.96296    -0.94334
    -0.94293    -0.93989    -0.93866    -0.93395    -0.92850    -0.92464
    -0.91659    -0.90603    -0.89254    -0.88636    -0.88534    -0.87183
    -0.84919    -0.84740    -0.84151    -0.83981    -0.83489    -0.83377
    -0.83238    -0.83096    -0.83095    -0.82721    -0.82640    -0.82585
    -0.82462    -0.82314    -0.82084    -0.81982    -0.81927    -0.81533
    -0.79500    -0.79126    -0.75424    -0.73738    -0.72997    -0.70594
    -0.70246    -0.69584    -0.69313    -0.68884    -0.68629    -0.67887
    -0.67802    -0.67428    -0.67385    -0.67314    -0.67162    -0.67038
    -0.66820    -0.66469    -0.66105    -0.66028    -0.65875    -0.65845
    -0.65662    -0.65353    -0.65249    -0.64149    -0.63995    -0.62667
    -0.61604    -0.61163    -0.60529    -0.60028    -0.59769    -0.59300
    -0.57933    -0.57806    -0.57551    -0.57512    -0.57423    -0.57208
    -0.56877    -0.56764    -0.56431    -0.55603    -0.54603    -0.54392
    -0.54154    -0.53586    -0.53496    -0.53190    -0.52822    -0.52703
    -0.52342    -0.52015    -0.51585    -0.51537    -0.51317    -0.51060
    -0.50777    -0.50657    -0.50563    -0.50227    -0.50172    -0.50069
    -0.49885    -0.49690    -0.49644    -0.49601    -0.49434    -0.49153
    -0.49116    -0.49017    -0.48936    -0.48843    -0.48728    -0.48679
    -0.48496    -0.48090    -0.48029    -0.47935    -0.47869    -0.47814
    -0.47512    -0.47385    -0.46896    -0.46549    -0.46476    -0.46286
    -0.45982    -0.45780    -0.45203    -0.44856    -0.44733    -0.44537
    -0.44361    -0.44168    -0.43844    -0.43214    -0.42969    -0.42886
    -0.42568    -0.42366    -0.42189    -0.42093    -0.41854    -0.41776
    -0.41564    -0.41390    -0.40807    -0.40650    -0.40170    -0.39883
    -0.39830    -0.39778    -0.39474    -0.39134    -0.39008    -0.38957
    -0.38824    -0.38728    -0.38631    -0.38365    -0.38193    -0.38136
    -0.37853    -0.37598    -0.37367    -0.36986    -0.36432    -0.36315
    -0.35032    -0.34932    -0.34406    -0.34280    -0.33967    -0.33882
    -0.33807    -0.33721    -0.33565    -0.33489    -0.32979    -0.32590
    -0.32304    -0.30927    -0.30760    -0.30452    -0.30150    -0.30044
    -0.29918    -0.29684    -0.29569    -0.29429    -0.29225    -0.28874
    -0.28638    -0.28557    -0.28437    -0.27941    -0.27728    -0.27438
    -0.26810    -0.24899    -0.05398    -0.01610    -0.01450    -0.00112
     0.00255     0.01556     0.01973     0.02183     0.02327     0.02499
 
  Peak memory usage:    833 Mb
  
  end of program scf
   
 Time(scf)  user:     2318.0  user+sys:     2329.0  wallclock:     2452.1
  
  start of program sole
  
    SCRF                   solvation energy
  iteration          Hartrees            kcal/mol
     0               0.0000000            0.0000
     1              -0.0176541          -11.0781
     2              -0.0187502          -11.7659
     3              -0.0188781          -11.8462
  
  stopping: solvation energy converged
  
  iterations:   3    sfinal:    -11.8462 kcal/mol
  
  Peak memory usage:    634 Mb
  
  end of program sole
   
 Time(sole)  user:        0.0  user+sys:        0.0  wallclock:        3.0
  
  start of program post
  
  Writing input files for PBF
  Peak memory usage:    534 Mb
  
  end of program post
   
 Time(post)  user:        0.0  user+sys:        0.0  wallclock:        0.2

 Total cpu seconds     user:   38767.000   user+sys:   38934.000
  
 Total elapsed time:    40525 seconds

Job Toru-SiPh3-Type-I-E-6-fine-grid-uf-acc-sol completed on tethys at Sat Nov 12 00:06:39 2016
