Job Toru-SiPh3-NTf-Type-II-E-Sulfonyl-2-chkp-scan-unrestrained.1-SPE started on tethys at Tue Mar 14 16:44:54 2017
jobid: tethys-0-58c81e02

  +--------------------------------------------------------------------+
  |  Jaguar version 9.5, release  11                                   |
  |                                                                    |
  |  Copyright Schrodinger, Inc.                                       |
  |  All Rights Reserved.                                              |
  |                                                                    |
  |  The following have contributed to Jaguar (listed alphabetically): |
  |  Mike Beachy, Art Bochevarov, Dale Braden, Yixiang Cao,            |
  |  Chris Cortis, Rich Friesner, Bill Goddard, Hod Greeley,           |
  |  Tom Hughes, Leif Jacobson, Jean-Marc Langlois,                    |
  |  Daniel Mainz, Rob Murphy, Dean Philipp, Tom Pollard,              |
  |  Murco Ringnalda, Mark Watson, Haoyu Yu.                           |
  |                                                                    |
  |  Use of this program should be acknowledged in publications as:    |
  |                                                                    |
  |  Jaguar, version 9.5, Schrodinger, Inc., New York, NY, 2017.       |
  |                                                                    |
  |  A. D. Bochevarov, E. Harder, T. F. Hughes, J. R. Greenwood,       |
  |  D. A. Braden, D. M. Philipp, D. Rinaldo, M. D. Halls,             |
  |  J. Zhang, R. A. Friesner, "Jaguar: A High-Performance Quantum     |
  |  Chemistry Software Program with Strengths in Life and Materials   |
  |  Sciences", Int. J. Quantum Chem., 2013, 113(18), 2110-2142.       |
  +--------------------------------------------------------------------+
  
  start of program pre
  
  Job name: Toru-SiPh3-NTf-Type-II-E-Sulfonyl-2-chkp-scan-unrestrained.1-SPE
  Executables used: /usr/local/shared/schrodinger/current/jaguar-v9.5/bin/Linux-x86_64
  Temporary files : /scratch/ab2144/Toru-SiPh3-NTf-Type-II-E-Sulfonyl-2-chkp-scan-unrestrained.1-SPE
  Maestro file (input):  Toru-SiPh3-NTf-Type-II-E-Sulfonyl-2-chkp-scan-unrestrained.1-SPE.mae
  Maestro file (output): Toru-SiPh3-NTf-Type-II-E-Sulfonyl-2-chkp-scan-unrestrained.1-SPE.01.mae
  
  basis set:             6-31g**                         
  net molecular charge:    0
  multiplicity:            1
  
  keygrid settings 
    wispc.....   7.500E-01
    ldens.....   0
    denspc....   7.500E-01
  
   grid     daf set  nls  grid set  Q type
  ------    -------  ---  --------  ------
  coarse       1      1       1        1
  medium       2      2       2        1
  fine         3      2       3        0
  ultrafine    4      2       4        1
  charge       0      1      -1        1
  gradient     5      2       4        1
  density      0      1       0        0
  DFT-fine     0      1     -13        0
  DFT-med.     0      1     -13        0
  DFT-grad     0      1     -13        0
  DFT-der2     0      1       0        0
  DFT-cphf     0      1       0        0
  LMP2-enrg    4      2       4        1
  LMP2-grad    5      2       2        1
  DFT-cphf2    0      1       0        0
  PBF-dens     0      1       0        0
  plotting     0      1       0        0
  Rel-grad     0      1     -17        0
  
  idftgrdm  100
  ndftgrdm   50    0    0
  idftgrdf  111
  ndftgrdf   85    0    0
  idftgrdg  111
  ndftgrdg   80    3    0
  idftgrdu  433
  ndftgrdu  105    0    0
  idftgrdd  433
  ndftgrdd  105    0    0
  idftgrdc  433
  ndftgrdc   26    0    0
  idftgrdp  433
  ndftgrdp   18    0    0
  
  number of basis functions....         1680
  
 Input geometry:
                                   angstroms
  atom               x                 y                 z
  C1            3.3705000000      4.7831000000      1.1646000000 
  C2            3.6033000000      3.3220000000      0.9802000000 
  C3            4.3999000000      5.6375000000      1.1839000000 
  C4            4.8666000000      2.8868000000      0.7745000000 
  C5            2.4733000000      2.3382000000      0.9805000000 
  C6            5.9999000000      3.8410000000      0.8047000000 
  C7            5.1202000000      1.4701000000      0.4601000000 
  C8            5.7773000000      5.1434000000      1.0062000000 
  C9            2.7080000000      1.0557000000      0.6008000000 
  C10           1.0943000000      2.7870000000      1.3130000000 
  C11           4.1025000000      0.6101000000      0.3262000000 
  O12           1.7237000000      0.0965000000      0.6648000000 
  Si13          4.4149000000     -1.1392000000     -0.2369000000 
  C14           0.7725000000      3.3862000000      2.4803000000 
  C15           0.0660000000      2.6681000000      0.2494000000 
  C16          -0.5409000000      4.0686000000      2.6112000000 
  C17           1.6878000000      3.4252000000      3.6466000000 
  C18          -1.3925000000      4.1034000000      1.5749000000 
  C19          -0.8566000000      4.7521000000      3.8811000000 
  C20          -1.0781000000      3.3808000000      0.3207000000 
  Si21         -2.2886000000      3.4323000000     -1.1103000000 
  O22           0.2841000000      1.7874000000     -0.7796000000 
  C23           1.3305000000      4.0619000000      4.7681000000 
  C24           0.0243000000      4.7462000000      4.8880000000 
  P25           0.3956000000      0.2357000000     -0.2813000000 
  O26           0.4586000000     -0.6403000000     -1.4936000000 
  N27          -0.8649000000      0.0404000000      0.7263000000 
  C28           6.2270000000     -1.5137000000     -0.4287000000 
  C29           3.6442000000     -2.2377000000      1.0504000000 
  C30           3.6765000000     -1.3833000000     -1.9262000000 
  C31          -3.6458000000      2.1800000000     -0.9001000000 
  C32          -3.1492000000      5.0832000000     -1.1777000000 
  C33          -1.3113000000      3.1467000000     -2.6747000000 
  C34           6.9509000000     -0.8532000000     -1.3486000000 
  C35           6.8739000000     -2.5765000000      0.3796000000 
  C36           2.6303000000     -3.0656000000      0.7519000000 
  C37           4.1243000000     -2.1501000000      2.4504000000 
  C38           3.6927000000     -2.5974000000     -2.5002000000 
  C39           3.1359000000     -0.2271000000     -2.6841000000 
  C40          -3.7699000000      1.4713000000      0.2337000000 
  C41          -4.6662000000      2.0331000000     -1.9661000000 
  C42          -2.8888000000      5.9776000000     -2.1473000000 
  C43          -4.1948000000      5.3914000000     -0.1707000000 
  C44          -1.5875000000      2.1273000000     -3.5056000000 
  C45          -0.1363000000      4.0105000000     -2.9515000000 
  C46           8.3863000000     -1.1552000000     -1.5254000000 
  C47           8.9684000000     -2.1022000000     -0.7808000000 
  C48           8.1740000000     -2.8507000000      0.2139000000 
  C49           2.0339000000     -3.9199000000      1.8001000000 
  C50           2.4831000000     -3.8501000000      3.0584000000 
  C51           3.5764000000     -2.9178000000      3.4004000000 
  C52           3.1177000000     -2.7910000000     -3.8477000000 
  C53           2.5949000000     -1.7526000000     -4.5099000000 
  C54           2.6139000000     -0.4065000000     -3.9038000000 
  C55          -4.8957000000      0.5272000000      0.3998000000 
  C56          -5.7962000000      0.3770000000     -0.5780000000 
  C57          -5.6772000000      1.1689000000     -1.8179000000 
  C58          -3.6034000000      7.2710000000     -2.1797000000 
  C59          -4.5288000000      7.5505000000     -1.2550000000 
  C60          -4.8435000000      6.5616000000     -0.2053000000 
  C61          -0.7543000000      1.8987000000     -4.7050000000 
  C62           0.2964000000      2.6884000000     -4.9538000000 
  C63           0.6248000000      3.7915000000     -4.0301000000 
  C64          -0.7553000000     -5.3107000000     -4.1187000000 
  C65          -1.8300000000     -4.8056000000     -3.3874000000 
  C66          -1.6394000000     -4.3170000000     -2.0841000000 
  C67          -0.3487000000     -4.3190000000     -1.5286000000 
  C68           0.7152000000     -4.8368000000     -2.2602000000 
  C69           0.5178000000     -5.3328000000     -3.5526000000 
  C70          -2.8350000000     -3.8552000000     -1.3475000000 
  N71          -2.8851000000     -3.9418000000      0.0248000000 
  S72          -4.4611000000     -4.0359000000      0.7086000000 
  O73          -5.2573000000     -2.8990000000      0.2220000000 
  O74          -4.9576000000     -5.3892000000      0.4559000000 
  C75          -4.0929000000     -3.7908000000      2.4600000000 
  C76          -4.8754000000     -2.8928000000      3.1770000000 
  C77          -4.5831000000     -2.7662000000      4.5339000000 
  C78          -3.5359000000     -3.5123000000      5.0717000000 
  C79          -2.8187000000     -4.3725000000      4.2373000000 
  N80          -3.1015000000     -4.5264000000      2.9391000000 
  N81          -1.8757000000     -1.4574000000     -2.5044000000 
  C82          -2.1014000000     -1.4382000000     -3.8140000000 
  C83          -3.4635000000     -1.7335000000     -4.0709000000 
  C84          -4.0564000000     -1.9408000000     -2.8406000000 
  C85          -3.0341000000     -1.8706000000     -1.8332000000 
  H86           2.3693000000      5.1785000000      1.2652000000 
  H87           4.2233000000      6.6972000000      1.3166000000 
  H88           7.0132000000      3.4875000000      0.6592000000 
  H89           6.1396000000      1.1538000000      0.2912000000 
  H90           6.6056000000      5.8400000000      1.0253000000 
  H91           2.6471000000      2.9244000000      3.6144000000 
  H92          -2.3298000000      4.6309000000      1.6720000000 
  H93          -1.8029000000      5.2651000000      4.0050000000 
  H94           2.0084000000      4.0751000000      5.6120000000 
  H95          -0.2207000000      5.2513000000      5.8135000000 
  H96           6.4957000000     -0.0905000000     -1.9688000000 
  H97           6.3039000000     -3.1474000000      1.0985000000 
  H98           2.2238000000     -3.1091000000     -0.2461000000 
  H99           4.9215000000     -1.4643000000      2.7094000000 
  H100          4.1150000000     -3.4496000000     -1.9820000000 
  H101          3.1514000000      0.7672000000     -2.2583000000 
  H102         -3.0705000000      1.5964000000      1.0487000000 
  H103         -4.5967000000      2.6242000000     -2.8708000000 
  H104         -2.1624000000      5.7760000000     -2.9196000000 
  H105         -4.4513000000      4.6647000000      0.5898000000 
  H106         -2.4024000000      1.4479000000     -3.3081000000 
  H107          0.1186000000      4.8150000000     -2.2727000000 
  H108          8.9646000000     -0.6089000000     -2.2592000000 
  H109         10.0195000000     -2.3258000000     -0.9097000000 
  H110          8.6446000000     -3.6273000000      0.8029000000 
  H111          1.2286000000     -4.5978000000      1.5485000000 
  H112          2.0427000000     -4.4703000000      3.8282000000 
  H113          3.9294000000     -2.8539000000      4.4214000000 
  H114          3.1176000000     -3.7759000000     -4.2954000000 
  H115          2.1680000000     -1.8943000000     -5.4942000000 
  H116          2.2104000000      0.4351000000     -4.4508000000 
  H117         -4.9934000000     -0.0403000000      1.3155000000 
  H118         -6.6186000000     -0.3163000000     -0.4584000000 
  H119         -6.4158000000      1.0570000000     -2.6009000000 
  H120         -3.3763000000      7.9913000000     -2.9551000000 
  H121         -5.0534000000      8.4969000000     -1.2787000000 
  H122         -5.6069000000      6.7817000000      0.5297000000 
  H123         -0.9941000000      1.0891000000     -5.3812000000 
  H124          0.9097000000      2.5180000000     -5.8292000000 
  H125          1.4838000000      4.4200000000     -4.2259000000 
  H126         -0.9178000000     -5.6969000000     -5.1203000000 
  H127         -2.8269000000     -4.8119000000     -3.8172000000 
  H128         -0.1801000000     -3.9181000000     -0.5358000000 
  H129          1.7070000000     -4.8598000000     -1.8217000000 
  H130          1.3556000000     -5.7371000000     -4.1125000000 
  H131         -3.7570000000     -4.2077000000     -1.7979000000 
  H132         -5.6437000000     -2.3104000000      2.6847000000 
  H133         -5.1515000000     -2.0806000000      5.1541000000 
  H134         -3.2687000000     -3.4270000000      6.1196000000 
  H135         -1.9889000000     -4.9606000000      4.6203000000 
  H136         -0.9555000000     -1.2085000000     -2.0601000000 
  H137         -1.3026000000     -1.2240000000     -4.5110000000 
  H138         -3.9240000000     -1.7807000000     -5.0471000000 
  H139         -5.0900000000     -2.1784000000     -2.6284000000 
  H140         -3.1929000000     -1.5136000000     -0.8237000000 
  S141         -1.2272000000     -1.1509000000      1.6703000000 
  O142         -0.7338000000     -2.4896000000      1.2320000000 
  C143         -0.3302000000     -0.8436000000      3.2859000000 
  O144         -2.6450000000     -1.0986000000      2.0532000000 
  F145          0.9883000000     -0.9970000000      3.1587000000 
  F146         -0.5796000000      0.4017000000      3.7118000000 
  F147         -0.7757000000     -1.7104000000      4.2089000000 
  H148         -2.1324000000     -3.5440000000      0.6110000000 
   
  principal moments of inertia:
        amu*angstrom^2:    22067.06695    24339.17311    30522.34990
                g*cm^2: 3.66432222E-36 4.04161428E-36 5.06835481E-36
   
  rotational constants:
               cm^(-1):      0.00076393      0.00069261      0.00055230
                   GHz:      0.02290196      0.02076402      0.01655767
   
  Molecular weight:    1308.28 amu
   
  Stoichiometry: Si2C73PN4H56S2O7F3
[running at reduced cpu priority]
  Molecular Point Group: C1      
  Point Group used: C1
  
  nuclear repulsion energy.......   20880.096233700 hartrees
 
 Non-default options chosen:
   SCF calculation type: DFT(m06-2x)                 
   DFT=M06-2X
   Solvation energy will be computed using PBF
     -solute cavity energy will not be included
     -surface area terms will not be included
   Highest accuracy cutoffs used in SCF
   Solvent: other                                                           
   Internal dielectric constant:    1.000
   Continuum dielectric constant:   2.380
   Solvent probe molecule radius:   2.760
  
 Temporary integer options set:
     73=  2
  
  atom       vdw   vdw2    cov     mass  grid  daf  charge   basis
  C1        1.949  1.900  0.770   12.000    Y    Y      Y    6-31g**
  C2        1.949  1.900  0.770   12.000    Y    Y      Y    6-31g**
  C3        1.949  1.900  0.770   12.000    Y    Y      Y    6-31g**
  C4        1.949  1.900  0.770   12.000    Y    Y      Y    6-31g**
  C5        1.949  1.900  0.770   12.000    Y    Y      Y    6-31g**
  C6        1.949  1.900  0.770   12.000    Y    Y      Y    6-31g**
  C7        1.949  1.900  0.770   12.000    Y    Y      Y    6-31g**
  C8        1.949  1.900  0.770   12.000    Y    Y      Y    6-31g**
  C9        1.949  1.900  0.770   12.000    Y    Y      Y    6-31g**
  C10       1.949  1.900  0.770   12.000    Y    Y      Y    6-31g**
  C11       1.949  1.900  0.770   12.000    Y    Y      Y    6-31g**
  O12       1.702  1.600  0.730   15.995    Y    Y      Y    6-31g**
  Si13      2.217  2.147  1.110   27.977    Y    Y      Y    6-31g**
  C14       1.949  1.900  0.770   12.000    Y    Y      Y    6-31g**
  C15       1.949  1.900  0.770   12.000    Y    Y      Y    6-31g**
  C16       1.949  1.900  0.770   12.000    Y    Y      Y    6-31g**
  C17       1.949  1.900  0.770   12.000    Y    Y      Y    6-31g**
  C18       1.949  1.900  0.770   12.000    Y    Y      Y    6-31g**
  C19       1.949  1.900  0.770   12.000    Y    Y      Y    6-31g**
  C20       1.949  1.900  0.770   12.000    Y    Y      Y    6-31g**
  Si21      2.217  2.147  1.110   27.977    Y    Y      Y    6-31g**
  O22       1.702  1.600  0.730   15.995    Y    Y      Y    6-31g**
  C23       1.949  1.900  0.770   12.000    Y    Y      Y    6-31g**
  C24       1.949  1.900  0.770   12.000    Y    Y      Y    6-31g**
  P25       2.147  2.074  1.060   30.974    Y    Y      Y    6-31g**
  O26       1.702  1.600  0.730   15.995    Y    Y      Y    6-31g**
  N27       1.831  1.600  0.750   14.003    Y    Y      Y    6-31g**
  C28       1.949  1.900  0.770   12.000    Y    Y      Y    6-31g**
  C29       1.949  1.900  0.770   12.000    Y    Y      Y    6-31g**
  C30       1.949  1.900  0.770   12.000    Y    Y      Y    6-31g**
  C31       1.949  1.900  0.770   12.000    Y    Y      Y    6-31g**
  C32       1.949  1.900  0.770   12.000    Y    Y      Y    6-31g**
  C33       1.949  1.900  0.770   12.000    Y    Y      Y    6-31g**
  C34       1.949  1.900  0.770   12.000    Y    Y      Y    6-31g**
  C35       1.949  1.900  0.770   12.000    Y    Y      Y    6-31g**
  C36       1.949  1.900  0.770   12.000    Y    Y      Y    6-31g**
  C37       1.949  1.900  0.770   12.000    Y    Y      Y    6-31g**
  C38       1.949  1.900  0.770   12.000    Y    Y      Y    6-31g**
  C39       1.949  1.900  0.770   12.000    Y    Y      Y    6-31g**
  C40       1.949  1.900  0.770   12.000    Y    Y      Y    6-31g**
  C41       1.949  1.900  0.770   12.000    Y    Y      Y    6-31g**
  C42       1.949  1.900  0.770   12.000    Y    Y      Y    6-31g**
  C43       1.949  1.900  0.770   12.000    Y    Y      Y    6-31g**
  C44       1.949  1.900  0.770   12.000    Y    Y      Y    6-31g**
  C45       1.949  1.900  0.770   12.000    Y    Y      Y    6-31g**
  C46       1.949  1.900  0.770   12.000    Y    Y      Y    6-31g**
  C47       1.949  1.900  0.770   12.000    Y    Y      Y    6-31g**
  C48       1.949  1.900  0.770   12.000    Y    Y      Y    6-31g**
  C49       1.949  1.900  0.770   12.000    Y    Y      Y    6-31g**
  C50       1.949  1.900  0.770   12.000    Y    Y      Y    6-31g**
  C51       1.949  1.900  0.770   12.000    Y    Y      Y    6-31g**
  C52       1.949  1.900  0.770   12.000    Y    Y      Y    6-31g**
  C53       1.949  1.900  0.770   12.000    Y    Y      Y    6-31g**
  C54       1.949  1.900  0.770   12.000    Y    Y      Y    6-31g**
  C55       1.949  1.900  0.770   12.000    Y    Y      Y    6-31g**
  C56       1.949  1.900  0.770   12.000    Y    Y      Y    6-31g**
  C57       1.949  1.900  0.770   12.000    Y    Y      Y    6-31g**
  C58       1.949  1.900  0.770   12.000    Y    Y      Y    6-31g**
  C59       1.949  1.900  0.770   12.000    Y    Y      Y    6-31g**
  C60       1.949  1.900  0.770   12.000    Y    Y      Y    6-31g**
  C61       1.949  1.900  0.770   12.000    Y    Y      Y    6-31g**
  C62       1.949  1.900  0.770   12.000    Y    Y      Y    6-31g**
  C63       1.949  1.900  0.770   12.000    Y    Y      Y    6-31g**
  C64       1.949  1.900  0.770   12.000    Y    Y      Y    6-31g**
  C65       1.949  1.900  0.770   12.000    Y    Y      Y    6-31g**
  C66       1.949  1.900  0.770   12.000    Y    Y      Y    6-31g**
  C67       1.949  1.900  0.770   12.000    Y    Y      Y    6-31g**
  C68       1.949  1.900  0.770   12.000    Y    Y      Y    6-31g**
  C69       1.949  1.900  0.770   12.000    Y    Y      Y    6-31g**
  C70       1.949  1.900  0.770   12.000    Y    Y      Y    6-31g**
  N71       1.831  1.600  0.750   14.003    Y    Y      Y    6-31g**
  S72       2.070  1.900  1.020   31.972    Y    Y      Y    6-31g**
  O73       1.702  1.600  0.730   15.995    Y    Y      Y    6-31g**
  O74       1.702  1.600  0.730   15.995    Y    Y      Y    6-31g**
  C75       1.949  1.900  0.770   12.000    Y    Y      Y    6-31g**
  C76       1.949  1.900  0.770   12.000    Y    Y      Y    6-31g**
  C77       1.949  1.900  0.770   12.000    Y    Y      Y    6-31g**
  C78       1.949  1.900  0.770   12.000    Y    Y      Y    6-31g**
  C79       1.949  1.900  0.770   12.000    Y    Y      Y    6-31g**
  N80       1.831  1.600  0.750   14.003    Y    Y      Y    6-31g**
  N81       1.831  1.600  0.750   14.003    Y    Y      Y    6-31g**
  C82       1.949  1.900  0.770   12.000    Y    Y      Y    6-31g**
  C83       1.949  1.900  0.770   12.000    Y    Y      Y    6-31g**
  C84       1.949  1.900  0.770   12.000    Y    Y      Y    6-31g**
  C85       1.949  1.900  0.770   12.000    Y    Y      Y    6-31g**
  H86       1.597  1.150  0.320    1.008    Y    Y      Y    6-31g**
  H87       1.597  1.150  0.320    1.008    Y    Y      Y    6-31g**
  H88       1.597  1.150  0.320    1.008    Y    Y      Y    6-31g**
  H89       1.597  1.150  0.320    1.008    Y    Y      Y    6-31g**
  H90       1.597  1.150  0.320    1.008    Y    Y      Y    6-31g**
  H91       1.597  1.150  0.320    1.008    Y    Y      Y    6-31g**
  H92       1.597  1.150  0.320    1.008    Y    Y      Y    6-31g**
  H93       1.597  1.150  0.320    1.008    Y    Y      Y    6-31g**
  H94       1.597  1.150  0.320    1.008    Y    Y      Y    6-31g**
  H95       1.597  1.150  0.320    1.008    Y    Y      Y    6-31g**
  H96       1.597  1.150  0.320    1.008    Y    Y      Y    6-31g**
  H97       1.597  1.150  0.320    1.008    Y    Y      Y    6-31g**
  H98       1.597  1.150  0.320    1.008    Y    Y      Y    6-31g**
  H99       1.597  1.150  0.320    1.008    Y    Y      Y    6-31g**
  H100      1.597  1.150  0.320    1.008    Y    Y      Y    6-31g**
  H101      1.597  1.150  0.320    1.008    Y    Y      Y    6-31g**
  H102      1.597  1.150  0.320    1.008    Y    Y      Y    6-31g**
  H103      1.597  1.150  0.320    1.008    Y    Y      Y    6-31g**
  H104      1.597  1.150  0.320    1.008    Y    Y      Y    6-31g**
  H105      1.597  1.150  0.320    1.008    Y    Y      Y    6-31g**
  H106      1.597  1.150  0.320    1.008    Y    Y      Y    6-31g**
  H107      1.597  1.150  0.320    1.008    Y    Y      Y    6-31g**
  H108      1.597  1.150  0.320    1.008    Y    Y      Y    6-31g**
  H109      1.597  1.150  0.320    1.008    Y    Y      Y    6-31g**
  H110      1.597  1.150  0.320    1.008    Y    Y      Y    6-31g**
  H111      1.597  1.150  0.320    1.008    Y    Y      Y    6-31g**
  H112      1.597  1.150  0.320    1.008    Y    Y      Y    6-31g**
  H113      1.597  1.150  0.320    1.008    Y    Y      Y    6-31g**
  H114      1.597  1.150  0.320    1.008    Y    Y      Y    6-31g**
  H115      1.597  1.150  0.320    1.008    Y    Y      Y    6-31g**
  H116      1.597  1.150  0.320    1.008    Y    Y      Y    6-31g**
  H117      1.597  1.150  0.320    1.008    Y    Y      Y    6-31g**
  H118      1.597  1.150  0.320    1.008    Y    Y      Y    6-31g**
  H119      1.597  1.150  0.320    1.008    Y    Y      Y    6-31g**
  H120      1.597  1.150  0.320    1.008    Y    Y      Y    6-31g**
  H121      1.597  1.150  0.320    1.008    Y    Y      Y    6-31g**
  H122      1.597  1.150  0.320    1.008    Y    Y      Y    6-31g**
  H123      1.597  1.150  0.320    1.008    Y    Y      Y    6-31g**
  H124      1.597  1.150  0.320    1.008    Y    Y      Y    6-31g**
  H125      1.597  1.150  0.320    1.008    Y    Y      Y    6-31g**
  H126      1.597  1.150  0.320    1.008    Y    Y      Y    6-31g**
  H127      1.597  1.150  0.320    1.008    Y    Y      Y    6-31g**
  H128      1.597  1.150  0.320    1.008    Y    Y      Y    6-31g**
  H129      1.597  1.150  0.320    1.008    Y    Y      Y    6-31g**
  H130      1.597  1.150  0.320    1.008    Y    Y      Y    6-31g**
  H131      1.597  1.150  0.320    1.008    Y    Y      Y    6-31g**
  H132      1.597  1.150  0.320    1.008    Y    Y      Y    6-31g**
  H133      1.597  1.150  0.320    1.008    Y    Y      Y    6-31g**
  H134      1.597  1.150  0.320    1.008    Y    Y      Y    6-31g**
  H135      1.597  1.150  0.320    1.008    Y    Y      Y    6-31g**
  H136      1.597  1.150  0.320    1.008    Y    Y      Y    6-31g**
  H137      1.597  1.150  0.320    1.008    Y    Y      Y    6-31g**
  H138      1.597  1.150  0.320    1.008    Y    Y      Y    6-31g**
  H139      1.597  1.150  0.320    1.008    Y    Y      Y    6-31g**
  H140      1.597  1.150  0.320    1.008    Y    Y      Y    6-31g**
  S141      2.070  1.900  1.020   31.972    Y    Y      Y    6-31g**
  O142      1.702  1.600  0.730   15.995    Y    Y      Y    6-31g**
  C143      1.949  1.900  0.770   12.000    Y    Y      Y    6-31g**
  O144      1.702  1.600  0.730   15.995    Y    Y      Y    6-31g**
  F145      1.736  1.682  0.720   18.998    Y    Y      Y    6-31g**
  F146      1.736  1.682  0.720   18.998    Y    Y      Y    6-31g**
  F147      1.736  1.682  0.720   18.998    Y    Y      Y    6-31g**
  H148      1.597  1.150  0.320    1.008    Y    Y      Y    6-31g**
  
  Peak memory usage:    768 Mb
  
  end of program pre
   
 Time(pre)  user:        1.0  user+sys:        1.0  wallclock:        5.4
  
  start of program onee
  
  smallest eigenvalue of S:    2.295E-04
  number of canonical orbitals.....         1673
  Peak memory usage:    900 Mb
  
  end of program onee
   
 Time(onee)  user:       17.6  user+sys:       17.6  wallclock:       81.4
  
  start of program hfig
  
  initial wavefunction generated automatically from atomic wavefunctions
 
  Irreducible     Total no   No of occupied orbitals 
  representation  orbitals   Shell_1  Shell_2    ...
  No Symm         1673        340
  ------------------------
  Orbital occupation/shell    1.000
 
  Peak memory usage:    833 Mb
  
  end of program hfig
   
 Time(hfig)  user:       27.5  user+sys:       27.5  wallclock:      144.0
  
  start of program probe
  
  Peak memory usage:    826 Mb
  
  end of program probe
   
 Time(probe)  user:       20.3  user+sys:       20.3  wallclock:      105.1
  
  start of program grid
  
   grid     grid set  grid #  grid sym
  ------    --------  ------  --------
  coarse        0        0        1
  medium        2        1        1
  fine          0        0        1
  ultrafine     4        2        1
  charge       -1        3        1
  gradient      4        2        1
  density       0        0        1
  DFT-fine    -13        4        1
  DFT-med.    -13        4        1
  DFT-grad    -13        4        1
  DFT-der2      0        0        1
  DFT-cphf      0        0        1
  LMP2-enrg     4        2        1
  LMP2-grad     2        1        1
  DFT-cphf2     0        0        1
  PBF-dens      0        0        1
  plotting      0        0        1
  Rel-grad    -17        0        1
  
  number of gridpoints: 
     atom        C1       C2       C3       C4       C5       C6       C7
  grid # 1       97      101       94      102      100       96       93
  grid # 2      338      360      336      366      358      335      336
  grid # 3       31       27       41       47       17       47       25
  grid # 4    48124    48124    48124    48124    48124    48124    48124
   
  number of gridpoints: 
     atom        C8       C9      C10      C11      O12     Si13      C14
  grid # 1       94       97      100      101      111      484      101
  grid # 2      335      354      354      358      431      484      356
  grid # 3       49       19       10       11       29        6        8
  grid # 4    48124    48124    48124    48124    47716    38542    48124
   
  number of gridpoints: 
     atom       C15      C16      C17      C18      C19      C20     Si21
  grid # 1       97      101       96       95       97      101      479
  grid # 2      355      363      334      334      339      358      479
  grid # 3       14       28       20       24       38       15        9
  grid # 4    48124    48124    48124    48124    48124    48124    38542
   
  number of gridpoints: 
     atom       O22      C23      C24      P25      O26      N27      C28
  grid # 1      112       93       94      443      116      109      101
  grid # 2      438      339      339      443      449      401      360
  grid # 3       48       33       39        6       55       21       17
  grid # 4    47716    48124    48124    38640    47716    47928    48124
   
  number of gridpoints: 
     atom       C29      C30      C31      C32      C33      C34      C35
  grid # 1       99      101       99       99       99       92       96
  grid # 2      356      359      357      363      357      335      340
  grid # 3        9        9       10       20       10       20       33
  grid # 4    48124    48124    48124    48124    48124    48124    48124
   
  number of gridpoints: 
     atom       C36      C37      C38      C39      C40      C41      C42
  grid # 1       92       94       92       96       92       94       93
  grid # 2      335      332      333      334      333      335      338
  grid # 3       21       11       20       15       15       19       34
  grid # 4    48124    48124    48124    48124    48124    48124    48124
   
  number of gridpoints: 
     atom       C43      C44      C45      C46      C47      C48      C49
  grid # 1       95       92       93       94       94       94       93
  grid # 2      336      335      331      335      336      336      332
  grid # 3       26       23       13       41       48       48       27
  grid # 4    48124    48124    48124    48124    48124    48124    48124
   
  number of gridpoints: 
     atom       C50      C51      C52      C53      C54      C55      C56
  grid # 1       93       92       93       93       93       93       93
  grid # 2      331      332      333      335      334      330      333
  grid # 3       26       17       33       36       25       21       25
  grid # 4    48124    48124    48124    48124    48124    48124    48124
   
  number of gridpoints: 
     atom       C57      C58      C59      C60      C61      C62      C63
  grid # 1       93       94       94       94       93       93       93
  grid # 2      334      336      336      336      334      333      334
  grid # 3       28       47       49       42       33       29       29
  grid # 4    48124    48124    48124    48124    48124    48124    48124
   
  number of gridpoints: 
     atom       C64      C65      C66      C67      C68      C69      C70
  grid # 1       96       96      101       96       96       96       91
  grid # 2      333      335      362      335      334      332      319
  grid # 3       41       35       30       34       39       40        6
  grid # 4    48124    48124    48124    48124    48124    48124    48124
   
  number of gridpoints: 
     atom       N71      S72      O73      O74      C75      C76      C77
  grid # 1       99      444      119      123       97       96       96
  grid # 2      348      444      472      516      356      327      329
  grid # 3       28       10      100      347       22       31       36
  grid # 4    47928    48492    47716    47716    48124    48124    48124
   
  number of gridpoints: 
     atom       C78      C79      N80      N81      C82      C83      C84
  grid # 1       96       96      113       97       94       93       93
  grid # 2      331      337      418      341      326      326      328
  grid # 3       32       31      106        9        6       12       13
  grid # 4    48124    48124    47928    47928    48124    48124    48124
   
  number of gridpoints: 
     atom       C85      H86      H87      H88      H89      H90      H91
  grid # 1       91      111      118      118      109      118      114
  grid # 2      322      434      451      446      426      453      436
  grid # 3        7      231      418      360      174      425      254
  grid # 4    48124    48426    48426    48426    48426    48426    48426
   
  number of gridpoints: 
     atom       H92      H93      H94      H95      H96      H97      H98
  grid # 1      112      118      118      118      112      111      106
  grid # 2      421      442      449      450      436      432      411
  grid # 3      163      362      409      417      246      228       65
  grid # 4    48426    48426    48426    48426    48426    48426    48426
   
  number of gridpoints: 
     atom       H99     H100     H101     H102     H103     H104     H105
  grid # 1      112      110      110      108      112      110      112
  grid # 2      439      433      426      425      434      429      426
  grid # 3      270      226      179      145      264      227      209
  grid # 4    48426    48426    48426    48426    48426    48426    48426
   
  number of gridpoints: 
     atom      H106     H107     H108     H109     H110     H111     H112
  grid # 1      107      112      118      118      118      113      117
  grid # 2      421      431      452      453      453      434      449
  grid # 3      120      235      416      424      423      243      356
  grid # 4    48426    48426    48426    48426    48426    48426    48426
   
  number of gridpoints: 
     atom      H113     H114     H115     H116     H117     H118     H119
  grid # 1      117      112      117      113      110      115      117
  grid # 2      451      436      449      431      431      442      450
  grid # 3      405      263      362      223      194      312      378
  grid # 4    48426    48426    48426    48426    48426    48426    48426
   
  number of gridpoints: 
     atom      H120     H121     H122     H123     H124     H125     H126
  grid # 1      118      118      118      113      117      117      118
  grid # 2      452      453      452      436      445      452      450
  grid # 3      418      424      418      266      338      400      407
  grid # 4    48426    48426    48426    48426    48426    48426    48426
   
  number of gridpoints: 
     atom      H127     H128     H129     H130     H131     H132     H133
  grid # 1      112      104      109      115      105      110      118
  grid # 2      437      406      426      440      417      433      454
  grid # 3      265       79      196      314      136      250      421
  grid # 4    48426    48426    48426    48426    48426    48426    48426
   
  number of gridpoints: 
     atom      H134     H135     H136     H137     H138     H139     H140
  grid # 1      117      117      100      111      117      111      106
  grid # 2      451      450      403      436      459      439      412
  grid # 3      396      380       95      220      419      260       72
  grid # 4    48426    48426    48426    48426    48426    48426    48426
   
  number of gridpoints: 
     atom      S141     O142     C143     O144     F145     F146     F147
  grid # 1      428      114       90      118      517      528      530
  grid # 2      428      452      318      475      517      528      530
  grid # 3        7       37        7       69      109      189      166
  grid # 4    48492    47716    48124    47716    47062    47062    47062
   
  number of gridpoints: 
     atom      H148    total
  grid # 1      101    18379
  grid # 2      393    57848
  grid # 3       58    19103
  grid # 4    48426  7104526
   
  Peak memory usage:    795 Mb
  
  end of program grid
   
 Time(grid)  user:     1158.9  user+sys:     1158.9  wallclock:     4801.6
  
  start of program rwr
  
  Peak memory usage:    814 Mb
  
  end of program rwr
   
 Time(rwr)  user:       77.1  user+sys:       77.1  wallclock:      351.8
  
  start of program scf
  
 number of electrons..........        680
 number of alpha electrons....        340
 number of beta electrons.....        340
 number of orbitals, total....       1673
 number of doubly-occ'd orbs..        340
 number of open shell orbs....          0
 number of occupied orbitals..        340
 number of virtual orbitals...       1333
 number of hamiltonians.......          1
 number of shells.............          1
 SCF type: DFT=M06-2X
 Energy computed with NOPS off.
  
       i  u  d  i  g                   
       t  p  i  c  r                                 RMS    maximum
       e  d  i  u  i                       energy  density   DIIS  
       r  t  s  t  d       total energy    change  change    error 
  
etot    1  N  N  1  U   -5562.73867990615           4.0E-03  8.6E-02
etot    2  N  Y  1  U   -5529.59486868628 -3.3E+01  1.7E-02  1.4E-01
etot    3  N  Y  1  U   -5300.00931083591 -2.3E+02  1.6E-02  3.8E-01
etot    4  N  Y  1  U   -5571.20175576140  2.7E+02  2.5E-03  7.2E-02
etot    5  N  Y  1  U   -5570.62520377264 -5.8E-01  2.0E-03  6.4E-02
etot    6  N  Y  1  U   -5569.44057509871 -1.2E+00  1.2E-03  6.7E-02
etot    7  N  Y  1  U   -5575.31156452085  5.9E+00  4.0E-04  1.7E-02
etot    8  N  Y  1  U   -5575.52667677555  2.2E-01  1.4E-04  4.7E-03
etot    9  N  Y  1  U   -5575.53808502388  1.1E-02  6.8E-05  3.7E-03
etot   10  N  Y  1  U   -5575.54731512874  9.2E-03  2.6E-05  1.1E-03
etot   11  N  Y  1  U   -5575.54837882230  1.1E-03  1.7E-05  6.4E-04
etot   12  N  Y  1  U   -5575.54889239812  5.1E-04  1.0E-05  3.6E-04
etot   13  N  Y  1  U   -5575.54904479216  1.5E-04  4.1E-06  2.1E-04
etot   14  N  N  1  U   -5575.54908021286  3.5E-05  0.0E+00  0.0E+00
  
  
 Energy components, in hartrees:
   (A)  Nuclear repulsion............   20880.09623370021
   (E)  Total one-electron terms.....  -49288.09586010527
   (F)    Electron-nuclear...........  -54824.10503250700
   (H)    Kinetic....................    5536.00917240172
   (I)  Total two-electron terms.....   22832.45054619220
   (J)    Coulomb....................   23483.70123130380
   (K)    Exchange+Correlation.......    -651.25068511160
   (L)  Electronic energy............  -26455.64531391307  (E+I)
   (M)  -V/T.........................       2.00714231255  (-(A+F+I)/H)
   (N)  Total energy.................   -5575.54908021286  (A+L)
   (O)  Gas phase energy.............   -5575.54908021286
  
 SCFE: SCF energy: DFT(m06-2x)     -5575.54908021286 hartrees   iterations:  14
  
 
 HOMO energy:    -0.25096
 LUMO energy:    -0.06562
 
  Orbital energies (hartrees): 
   -90.17049   -90.15344   -78.20915   -67.00704   -67.00294   -25.28576
   -25.28232   -25.28162   -19.68934   -19.68560   -19.65062   -19.64509
   -19.63261   -19.62534   -19.60432   -14.82238   -14.81466   -14.79125
   -14.73777   -10.80093   -10.66269   -10.63407   -10.62432   -10.62194
   -10.62095   -10.60831   -10.60398   -10.59105   -10.58846   -10.58488
   -10.58327   -10.58280   -10.57353   -10.57137   -10.56801   -10.56725
   -10.56700   -10.56640   -10.56633   -10.56479   -10.56432   -10.56291
   -10.55979   -10.55875   -10.55747   -10.55548   -10.55140   -10.55130
   -10.55051   -10.55035   -10.54992   -10.54983   -10.54934   -10.54914
   -10.54910   -10.54873   -10.54866   -10.54820   -10.54816   -10.54760
   -10.54744   -10.54727   -10.54707   -10.54697   -10.54640   -10.54624
   -10.54614   -10.54535   -10.54479   -10.54465   -10.54367   -10.54231
   -10.54213   -10.54083   -10.54016   -10.53955   -10.53917   -10.53877
   -10.53866   -10.53823   -10.53819   -10.53804   -10.53773   -10.53627
   -10.53622   -10.53465   -10.53149   -10.53135   -10.53119   -10.52488
   -10.52404   -10.52298    -8.48141    -8.46181    -6.98858    -6.40368
    -6.40238    -6.40186    -6.38387    -6.38329    -6.38314    -5.53798
    -5.53468    -5.10714    -5.10581    -5.10463    -3.84776    -3.84741
    -3.84736    -3.84451    -3.84411    -3.84388    -1.44992    -1.35955
    -1.35753    -1.24181    -1.22801    -1.21777    -1.18318    -1.12523
    -1.11499    -1.10254    -1.08865    -1.08472    -1.06451    -0.98948
    -0.97873    -0.97340    -0.96442    -0.94298    -0.94220    -0.93969
    -0.93453    -0.93334    -0.93152    -0.92629    -0.91912    -0.90847
    -0.90330    -0.89921    -0.88747    -0.87963    -0.85457    -0.85083
    -0.84477    -0.84255    -0.83999    -0.83440    -0.83382    -0.83356
    -0.83280    -0.82763    -0.82647    -0.82530    -0.82528    -0.82383
    -0.82366    -0.82178    -0.82124    -0.81876    -0.81666    -0.80471
    -0.79868    -0.76167    -0.75749    -0.74040    -0.72682    -0.71690
    -0.70741    -0.70281    -0.69574    -0.69537    -0.69063    -0.68797
    -0.68794    -0.68003    -0.67713    -0.67612    -0.67496    -0.67367
    -0.67354    -0.67334    -0.67312    -0.66925    -0.66679    -0.66463
    -0.66348    -0.66200    -0.65852    -0.65401    -0.65390    -0.65167
    -0.64847    -0.64726    -0.63614    -0.62339    -0.61270    -0.60581
    -0.60385    -0.60007    -0.59788    -0.58724    -0.58055    -0.57899
    -0.57795    -0.57592    -0.57292    -0.57255    -0.57237    -0.57128
    -0.56238    -0.55758    -0.55615    -0.55193    -0.54904    -0.54875
    -0.54496    -0.54361    -0.53855    -0.53598    -0.53456    -0.53282
    -0.53077    -0.52583    -0.52581    -0.52447    -0.51939    -0.51778
    -0.51530    -0.51406    -0.51373    -0.51270    -0.51106    -0.51057
    -0.50948    -0.50626    -0.50288    -0.50020    -0.49939    -0.49834
    -0.49702    -0.49532    -0.49469    -0.49373    -0.49308    -0.49273
    -0.49178    -0.49126    -0.49104    -0.49026    -0.48878    -0.48705
    -0.48312    -0.48248    -0.48226    -0.48011    -0.47895    -0.47714
    -0.47394    -0.47200    -0.47145    -0.47042    -0.46817    -0.46270
    -0.46232    -0.45380    -0.45059    -0.44802    -0.44677    -0.44567
    -0.44269    -0.44120    -0.43789    -0.43528    -0.43024    -0.42880
    -0.42593    -0.42343    -0.42216    -0.42070    -0.41777    -0.41675
    -0.41613    -0.41384    -0.41297    -0.40989    -0.40784    -0.40191
    -0.40067    -0.39795    -0.39784    -0.39264    -0.39160    -0.39143
    -0.38978    -0.38951    -0.38802    -0.38488    -0.38320    -0.38228
    -0.38179    -0.37850    -0.37773    -0.37625    -0.37115    -0.36886
    -0.36225    -0.36014    -0.35350    -0.35027    -0.34654    -0.34278
    -0.34127    -0.33777    -0.33738    -0.33652    -0.33457    -0.33281
    -0.32771    -0.32563    -0.32227    -0.31778    -0.31492    -0.30337
    -0.30062    -0.29931    -0.29883    -0.29708    -0.29358    -0.29184
    -0.29130    -0.28833    -0.28828    -0.28555    -0.28381    -0.28338
    -0.28271    -0.27980    -0.27066    -0.25096    -0.06562    -0.01922
    -0.01801    -0.00213     0.00270     0.01055     0.01369     0.01882
     0.02060     0.02493
 
  Peak memory usage:   1028 Mb
  
  end of program scf
   
 Time(scf)  user:    38875.5  user+sys:    38875.5  wallclock:   165429.3
  
  start of program ch
  
  gridpoints used for charge fit        16529
    out of a possible maximum of        19103
  
   Electrostatic potential fitting constrained to reproduce
     total charge:                yes
     dipole moment:               no 
     traceless quadrupole moment: no 
     traceless octapole moment:   no 
  
  Atomic charges from electrostatic potential: 
   
 Atom       C1           C2           C3           C4           C5      
 Charge   -0.11430     -0.00902     -0.16742      0.17969      0.10781
   
 Atom       C6           C7           C8           C9           C10     
 Charge   -0.21091     -0.36284     -0.12078     -0.17338     -0.19056
   
 Atom       C11          O12          Si13         C14          C15     
 Charge    0.22739     -0.08349     -0.14703      0.21091      0.14905
   
 Atom       C16          C17          C18          C19          C20     
 Charge    0.24491     -0.23508     -0.43741     -0.24938      0.02980
   
 Atom       Si21         O22          C23          C24          P25     
 Charge    0.08210     -0.21979     -0.12199     -0.12986      0.83877
   
 Atom       O26          N27          C28          C29          C30     
 Charge   -0.53885     -0.65853      0.12486      0.18539      0.04862
   
 Atom       C31          C32          C33          C34          C35     
 Charge   -0.00821      0.05471      0.01306     -0.15196     -0.16076
   
 Atom       C36          C37          C38          C39          C40     
 Charge   -0.18756     -0.17105     -0.12569     -0.09588     -0.04608
   
 Atom       C41          C42          C43          C44          C45     
 Charge   -0.13142     -0.10019     -0.15974     -0.10833     -0.07258
   
 Atom       C46          C47          C48          C49          C50     
 Charge   -0.14607     -0.13401     -0.13152     -0.12532     -0.16597
   
 Atom       C51          C52          C53          C54          C55     
 Charge   -0.12161     -0.15548     -0.10321     -0.13945     -0.17531
   
 Atom       C56          C57          C58          C59          C60     
 Charge   -0.11489     -0.15033     -0.15402     -0.13005     -0.12714
   
 Atom       C61          C62          C63          C64          C65     
 Charge   -0.20359     -0.04812     -0.18570     -0.15348     -0.15053
   
 Atom       C66          C67          C68          C69          C70     
 Charge    0.12214     -0.12943     -0.05733     -0.13292      0.09315
   
 Atom       N71          S72          O73          O74          C75     
 Charge   -0.50339      0.62414     -0.44927     -0.40052      0.54406
   
 Atom       C76          C77          C78          C79          N80     
 Charge   -0.38415      0.10142     -0.37037      0.34838     -0.56228
   
 Atom       N81          C82          C83          C84          C85     
 Charge   -0.31387      0.06198     -0.34876     -0.12551      0.29730
   
 Atom       H86          H87          H88          H89          H90     
 Charge    0.10578      0.14495      0.14179      0.16702      0.13465
   
 Atom       H91          H92          H93          H94          H95     
 Charge    0.14147      0.19489      0.15341      0.13853      0.13362
   
 Atom       H96          H97          H98          H99          H100    
 Charge    0.12772      0.10821      0.11517      0.11599      0.12124
   
 Atom       H101         H102         H103         H104         H105    
 Charge    0.10300      0.12566      0.10699      0.08649      0.12367
   
 Atom       H106         H107         H108         H109         H110    
 Charge    0.11172      0.10607      0.13208      0.13148      0.13337
   
 Atom       H111         H112         H113         H114         H115    
 Charge    0.13295      0.13964      0.12796      0.11919      0.10895
   
 Atom       H116         H117         H118         H119         H120    
 Charge    0.11867      0.13975      0.12621      0.12805      0.13457
   
 Atom       H121         H122         H123         H124         H125    
 Charge    0.12953      0.12798      0.13115      0.10619      0.13461
   
 Atom       H126         H127         H128         H129         H130    
 Charge    0.14672      0.11142      0.11007      0.11205      0.13572
   
 Atom       H131         H132         H133         H134         H135    
 Charge    0.15110      0.21115      0.12486      0.18452      0.06881
   
 Atom       H136         H137         H138         H139         H140    
 Charge    0.36121      0.15992      0.20541      0.15915      0.07537
   
 Atom       S141         O142         C143         O144         F145    
 Charge    0.69698     -0.46176      0.50077     -0.45061     -0.14223
   
 Atom       F146         F147         H148    
 Charge   -0.15614     -0.16951      0.34864
  
  sum of atomic charges:     0.000000
   
 RMS Error   9.99E-04 hartrees
 
  Peak memory usage:    816 Mb
  
  end of program ch
   
 Time(ch)  user:       18.9  user+sys:       18.9  wallclock:       76.4
  
  start of program post
  
  Writing input files for PBF
  Peak memory usage:    759 Mb
  
  end of program post
   
 Time(post)  user:        0.8  user+sys:        0.8  wallclock:        4.0

  start of program pbf

Pbf Version 4.10

Molecular surface area:      822.89848   [A2]
Reaction field energy:       -17.75314   [kT]
  Peak memory usage: 722 Mb

  end of program pbf

 Time(pbf)  user:        9.4  user+sys:        9.5  wallclock:       35.9
  
  start of program solv
  
   number of surface charges from PBF   13550
   sum of surface charges     -0.00032
   
  nuclear repulsion energy.......   20880.096233700 hartrees
  Peak memory usage:    894 Mb
  
  end of program solv
   
 Time(solv)  user:       39.2  user+sys:       39.2  wallclock:      145.7
  
  start of program scf
  
 Energy computed with NOPS off.
  
       i  u  d  i  g                   
       t  p  i  c  r                                 RMS    maximum
       e  d  i  u  i                       energy  density   DIIS  
       r  t  s  t  d       total energy    change  change    error 
  
etot    1  N  N  1  U   -5575.58627931144           5.4E-05  1.2E-03
etot    2  N  Y  1  U   -5575.58706372534  7.8E-04  1.8E-05  8.2E-04
etot    3  N  Y  1  U   -5575.58737834687  3.1E-04  6.1E-06  4.1E-04
etot    4  N  Y  1  U   -5575.58744164003  6.3E-05  2.5E-06  9.3E-05
etot    5  N  N  1  U   -5575.58744773455  6.1E-06  0.0E+00  0.0E+00
  
  
 Energy components, in hartrees:
   (A)  Total zero-electron terms....   20882.45531547038
   (B)    Nuclear-nuclear............   20880.09623370021
   (C)    Nuclear-solvent............       2.35908177017
   (E)  Total one-electron terms.....  -49291.91025168308
   (F)    Electron-nuclear...........  -54825.58777740875
   (G)    Electron-solvent...........      -2.39860181208
   (H)    Kinetic....................    5536.07612753776
   (I)  Total two-electron terms.....   22833.86748847815
   (J)    Coulomb....................   23485.14121415918
   (K)    Exchange+Correlation.......    -651.27372568103
   (L)  Electronic energy............  -26458.04276320493  (E+I)
   (N)  Total quantum mech. energy...   -5575.58744773455  (A+L)
   (O)  Gas phase energy.............   -5575.54908021286
   (P)  Solution phase energy........   -5575.56768771359  (Q+R+S)
   (Q)    Total solute energy........   -5575.54792769263  (N-C-G)
   (R)    Total solvent energy.......      -0.01976002096  (C/2+G/2)
   (S)    Solute cavity energy.......       0.00000000000
   (U)  Reorganization energy........       0.00115252023  (Q-O)
   (V)  Solvation energy.............      -0.01860750073  (P-O)
  
 SCFE:  Solution phase energy: DFT(m06-2x)      -5575.56768771359 hartrees
        SCF iterations:   5
  
 
 HOMO energy:    -0.25355
 LUMO energy:    -0.06360
 
  Orbital energies (hartrees): 
   -90.17513   -90.15614   -78.21101   -67.00919   -67.00561   -25.28891
   -25.28628   -25.28534   -19.69118   -19.68807   -19.65460   -19.65209
   -19.63533   -19.62625   -19.60559   -14.81941   -14.81613   -14.79055
   -14.73969   -10.80454   -10.66079   -10.63349   -10.62494   -10.62349
   -10.62116   -10.60541   -10.60163   -10.58676   -10.58562   -10.58116
   -10.58061   -10.57852   -10.57169   -10.57015   -10.56953   -10.56951
   -10.56736   -10.56674   -10.56415   -10.56301   -10.56298   -10.56212
   -10.56180   -10.56085   -10.55913   -10.55828   -10.55321   -10.55307
   -10.55277   -10.55260   -10.55235   -10.55154   -10.55124   -10.55087
   -10.55083   -10.55020   -10.55014   -10.55009   -10.55005   -10.54951
   -10.54892   -10.54883   -10.54830   -10.54827   -10.54827   -10.54785
   -10.54736   -10.54726   -10.54710   -10.54630   -10.54476   -10.54402
   -10.54337   -10.54234   -10.54226   -10.54134   -10.54131   -10.54099
   -10.54073   -10.54054   -10.54050   -10.54046   -10.54006   -10.53844
   -10.53808   -10.53664   -10.53414   -10.53381   -10.53282   -10.52727
   -10.52633   -10.52558    -8.48605    -8.46441    -6.99045    -6.40827
    -6.40709    -6.40648    -6.38648    -6.38591    -6.38577    -5.54012
    -5.53734    -5.10901    -5.10769    -5.10650    -3.84989    -3.84956
    -3.84951    -3.84717    -3.84677    -3.84654    -1.45370    -1.36311
    -1.36155    -1.24733    -1.23020    -1.21991    -1.18551    -1.13148
    -1.11257    -1.10456    -1.08981    -1.08400    -1.06553    -0.99164
    -0.98150    -0.97132    -0.96712    -0.94501    -0.94491    -0.94145
    -0.93666    -0.93548    -0.93387    -0.92323    -0.92177    -0.91073
    -0.90151    -0.89663    -0.89002    -0.87745    -0.85330    -0.85216
    -0.84452    -0.84236    -0.84200    -0.83632    -0.83623    -0.83603
    -0.83420    -0.83000    -0.82865    -0.82752    -0.82726    -0.82604
    -0.82568    -0.82444    -0.82360    -0.82082    -0.81883    -0.80428
    -0.80095    -0.76391    -0.75650    -0.73755    -0.72933    -0.71635
    -0.70968    -0.70485    -0.69791    -0.69358    -0.69080    -0.68756
    -0.68615    -0.68272    -0.67861    -0.67801    -0.67752    -0.67710
    -0.67614    -0.67535    -0.67105    -0.66964    -0.66862    -0.66613
    -0.66543    -0.66341    -0.66034    -0.65590    -0.65575    -0.65089
    -0.64950    -0.64589    -0.63799    -0.62557    -0.61101    -0.60726
    -0.60480    -0.60179    -0.59979    -0.58923    -0.58254    -0.58029
    -0.57928    -0.57613    -0.57470    -0.57348    -0.57301    -0.57055
    -0.56286    -0.55950    -0.55875    -0.55530    -0.55107    -0.55008
    -0.54675    -0.54443    -0.53964    -0.53732    -0.53273    -0.53159
    -0.53085    -0.52781    -0.52638    -0.52570    -0.52197    -0.51834
    -0.51716    -0.51659    -0.51420    -0.51347    -0.51199    -0.51135
    -0.50970    -0.50772    -0.50435    -0.50161    -0.50136    -0.49928
    -0.49820    -0.49710    -0.49624    -0.49453    -0.49442    -0.49393
    -0.49346    -0.49285    -0.49077    -0.48967    -0.48845    -0.48654
    -0.48439    -0.48364    -0.48313    -0.48172    -0.48038    -0.47555
    -0.47374    -0.47352    -0.47303    -0.47012    -0.46842    -0.46414
    -0.45998    -0.45602    -0.45217    -0.44998    -0.44832    -0.44546
    -0.44411    -0.44255    -0.43906    -0.43706    -0.43238    -0.43040
    -0.42710    -0.42619    -0.42491    -0.42244    -0.41999    -0.41848
    -0.41811    -0.41617    -0.41469    -0.41073    -0.40789    -0.40353
    -0.40284    -0.40279    -0.39911    -0.39474    -0.39404    -0.39247
    -0.39158    -0.39085    -0.39001    -0.38778    -0.38557    -0.38422
    -0.38359    -0.38132    -0.37975    -0.37836    -0.37317    -0.37067
    -0.36280    -0.36007    -0.35569    -0.35271    -0.34740    -0.34529
    -0.34272    -0.34002    -0.33793    -0.33661    -0.33441    -0.33360
    -0.33003    -0.32733    -0.32423    -0.31727    -0.31330    -0.30620
    -0.30349    -0.30218    -0.30189    -0.29899    -0.29545    -0.29376
    -0.29212    -0.29078    -0.29009    -0.28774    -0.28624    -0.28540
    -0.28517    -0.28262    -0.27357    -0.25355    -0.06360    -0.02058
    -0.01818    -0.00036     0.00035     0.00792     0.01512     0.01649
     0.02112     0.02252
 
  Peak memory usage:   1029 Mb
  
  end of program scf
   
 Time(scf)  user:    11357.2  user+sys:    11357.2  wallclock:    42417.1
  
  start of program sole
  
    SCRF                   solvation energy
  iteration          Hartrees            kcal/mol
     0               0.0000000            0.0000
     1              -0.0186075          -11.6764
  
  solvation energy not yet converged... 
  
  Peak memory usage:    813 Mb
  
  end of program sole
   
 Time(sole)  user:        0.2  user+sys:        0.2  wallclock:        0.8
  
  start of program ch
  
  gridpoints used for charge fit        16529
    out of a possible maximum of        16529
  
   Electrostatic potential fitting constrained to reproduce
     total charge:                yes
     dipole moment:               no 
     traceless quadrupole moment: no 
     traceless octapole moment:   no 
  
  Atomic charges from electrostatic potential: 
   
 Atom       C1           C2           C3           C4           C5      
 Charge   -0.11198     -0.00996     -0.17514      0.18394      0.11207
   
 Atom       C6           C7           C8           C9           C10     
 Charge   -0.21944     -0.38179     -0.12552     -0.19202     -0.18469
   
 Atom       C11          O12          Si13         C14          C15     
 Charge    0.25390     -0.07055     -0.18506      0.21274      0.13247
   
 Atom       C16          C17          C18          C19          C20     
 Charge    0.25047     -0.23952     -0.45553     -0.25959      0.04356
   
 Atom       Si21         O22          C23          C24          P25     
 Charge    0.07144     -0.20034     -0.12778     -0.13585      0.79791
   
 Atom       O26          N27          C28          C29          C30     
 Charge   -0.51553     -0.64822      0.13554      0.19994      0.05744
   
 Atom       C31          C32          C33          C34          C35     
 Charge   -0.00072      0.05154      0.01974     -0.16128     -0.16479
   
 Atom       C36          C37          C38          C39          C40     
 Charge   -0.19836     -0.17369     -0.13627     -0.09251     -0.05081
   
 Atom       C41          C42          C43          C44          C45     
 Charge   -0.13910     -0.09973     -0.16241     -0.12105     -0.07468
   
 Atom       C46          C47          C48          C49          C50     
 Charge   -0.15202     -0.14241     -0.14058     -0.13523     -0.17083
   
 Atom       C51          C52          C53          C54          C55     
 Charge   -0.13244     -0.16156     -0.10053     -0.16533     -0.18141
   
 Atom       C56          C57          C58          C59          C60     
 Charge   -0.12105     -0.15775     -0.16372     -0.13734     -0.13464
   
 Atom       C61          C62          C63          C64          C65     
 Charge   -0.20706     -0.05406     -0.19253     -0.15616     -0.15940
   
 Atom       C66          C67          C68          C69          C70     
 Charge    0.11685     -0.13202     -0.05618     -0.13806      0.09614
   
 Atom       N71          S72          O73          O74          C75     
 Charge   -0.51378      0.63915     -0.46051     -0.42993      0.55266
   
 Atom       C76          C77          C78          C79          N80     
 Charge   -0.39093      0.10647     -0.37460      0.35932     -0.59432
   
 Atom       N81          C82          C83          C84          C85     
 Charge   -0.30011      0.07469     -0.36563     -0.11101      0.28099
   
 Atom       H86          H87          H88          H89          H90     
 Charge    0.10521      0.15297      0.14877      0.17577      0.14245
   
 Atom       H91          H92          H93          H94          H95     
 Charge    0.14331      0.20163      0.16089      0.14662      0.14158
   
 Atom       H96          H97          H98          H99          H100    
 Charge    0.13361      0.10905      0.12615      0.11963      0.12726
   
 Atom       H101         H102         H103         H104         H105    
 Charge    0.10553      0.12635      0.11137      0.08573      0.12655
   
 Atom       H106         H107         H108         H109         H110    
 Charge    0.11347      0.10897      0.14022      0.14002      0.14211
   
 Atom       H111         H112         H113         H114         H115    
 Charge    0.13765      0.14634      0.13581      0.12564      0.11354
   
 Atom       H116         H117         H118         H119         H120    
 Charge    0.12990      0.14252      0.13070      0.13620      0.14338
   
 Atom       H121         H122         H123         H124         H125    
 Charge    0.13787      0.13609      0.13648      0.11246      0.14171
   
 Atom       H126         H127         H128         H129         H130    
 Charge    0.15483      0.12035      0.10288      0.11293      0.14287
   
 Atom       H131         H132         H133         H134         H135    
 Charge    0.15616      0.21717      0.13498      0.19470      0.07507
   
 Atom       H136         H137         H138         H139         H140    
 Charge    0.34633      0.16534      0.21748      0.16138      0.08422
   
 Atom       S141         O142         C143         O144         F145    
 Charge    0.69632     -0.45347      0.50385     -0.45574     -0.14120
   
 Atom       F146         F147         H148    
 Charge   -0.16074     -0.17154      0.35239
  
  sum of atomic charges:     0.000000
   
 RMS Error   1.01E-03 hartrees
 
  Peak memory usage:    816 Mb
  
  end of program ch
   
 Time(ch)  user:       19.0  user+sys:       19.0  wallclock:       72.0
  
  start of program post
  
  Writing input files for PBF
  Peak memory usage:    759 Mb
  
  end of program post
   
 Time(post)  user:        0.9  user+sys:        0.9  wallclock:        3.8

  start of program pbf

Pbf Version 4.10

Molecular surface area:      822.89848   [A2]
Reaction field energy:       -20.45669   [kT]
  Peak memory usage: 722 Mb

  end of program pbf

 Time(pbf)  user:       10.9  user+sys:       11.1  wallclock:       40.8
  
  start of program solv
  
   number of surface charges from PBF   13550
   sum of surface charges     -0.00034
   
  nuclear repulsion energy.......   20880.096233700 hartrees
  Peak memory usage:    894 Mb
  
  end of program solv
   
 Time(solv)  user:       38.6  user+sys:       38.6  wallclock:      141.7
  
  start of program scf
  
 Energy computed with NOPS off.
  
       i  u  d  i  g                   
       t  p  i  c  r                                 RMS    maximum
       e  d  i  u  i                       energy  density   DIIS  
       r  t  s  t  d       total energy    change  change    error 
  
etot    1  N  N  1  U   -5575.59029983884           6.8E-06  1.3E-04
etot    2  N  N  1  U   -5575.59030314611  3.3E-06  0.0E+00  0.0E+00
  
  
 Energy components, in hartrees:
   (A)  Total zero-electron terms....   20882.69936699611
   (B)    Nuclear-nuclear............   20880.09623370021
   (C)    Nuclear-solvent............       2.60313329590
   (E)  Total one-electron terms.....  -49292.46544433820
   (F)    Electron-nuclear...........  -54825.90659709488
   (G)    Electron-solvent...........      -2.64586926515
   (H)    Kinetic....................    5536.08702202183
   (I)  Total two-electron terms.....   22834.17577419599
   (J)    Coulomb....................   23485.45159148199
   (K)    Exchange+Correlation.......    -651.27581728600
   (L)  Electronic energy............  -26458.28967014221  (E+I)
   (N)  Total quantum mech. energy...   -5575.59030314611  (A+L)
   (O)  Gas phase energy.............   -5575.54908021286
   (P)  Solution phase energy........   -5575.56893516148  (Q+R+S)
   (Q)    Total solute energy........   -5575.54756717686  (N-C-G)
   (R)    Total solvent energy.......      -0.02136798462  (C/2+G/2)
   (S)    Solute cavity energy.......       0.00000000000
   (U)  Reorganization energy........       0.00151303601  (Q-O)
   (V)  Solvation energy.............      -0.01985494862  (P-O)
  
 SCFE:  Solution phase energy: DFT(m06-2x)      -5575.56893516148 hartrees
        SCF iterations:   2
  
 
 HOMO energy:    -0.27722
 LUMO energy:    -0.06319
 
  Orbital energies (hartrees): 
   -51.05170   -44.15537   -42.90512   -41.96891   -34.74749   -33.92664
   -30.80022   -29.17153   -28.43702   -22.47017   -22.15672   -21.30063
   -20.84268   -20.64777   -20.01425   -19.62273   -18.26077   -17.67183
   -17.51998   -16.80450   -16.61119   -16.60238   -16.14837   -15.52646
   -15.24181   -15.14668   -14.49155   -14.22367   -14.10251   -13.66564
   -13.62186   -13.49627   -13.27055   -12.96893   -12.91749   -12.78281
   -12.69800   -12.68247   -12.66033   -12.45221   -12.02955   -11.93518
   -11.88458   -11.77514   -11.72399   -11.67270   -11.63958   -11.52982
   -11.37720   -11.34766   -11.22794   -11.19243   -10.87702   -10.85927
   -10.81046   -10.78047   -10.74532   -10.74065   -10.73911   -10.72515
   -10.69518   -10.67189   -10.66223   -10.65096   -10.62836   -10.61137
   -10.55896   -10.55828   -10.48716   -10.47266   -10.46221   -10.43877
   -10.42779   -10.38364   -10.31212   -10.22169   -10.22165   -10.21852
   -10.20887   -10.19852   -10.18355   -10.15945   -10.06767   -10.06559
   -10.06162   -10.02567    -9.99391    -9.95250    -9.80533    -9.76126
    -9.75282    -9.65753    -9.63780    -9.57256    -9.48394    -9.46844
    -9.43443    -9.25116    -9.14095    -8.96288    -8.15480    -7.94880
    -7.86521    -7.47871    -7.36892    -6.65544    -6.61232    -6.48220
    -6.12225    -5.98957    -5.64257    -4.80987    -1.86425    -1.41948
    -1.25744    -1.18620    -1.13666    -0.99770    -0.98961    -0.98054
    -0.97967    -0.96145    -0.94305    -0.93737    -0.92708    -0.92386
    -0.91963    -0.91534    -0.89455    -0.88910    -0.88866    -0.88551
    -0.87910    -0.87523    -0.86798    -0.85013    -0.84895    -0.84467
    -0.84414    -0.84361    -0.84351    -0.84235    -0.83653    -0.83360
    -0.82729    -0.82651    -0.81212    -0.80784    -0.79449    -0.79446
    -0.79387    -0.79366    -0.79047    -0.77991    -0.77833    -0.76996
    -0.76822    -0.76038    -0.74958    -0.74031    -0.73647    -0.73289
    -0.73243    -0.73130    -0.73101    -0.72547    -0.72367    -0.72084
    -0.71513    -0.71503    -0.71317    -0.70732    -0.70281    -0.69028
    -0.68135    -0.67851    -0.67784    -0.67767    -0.67702    -0.67282
    -0.67061    -0.67011    -0.66399    -0.66046    -0.65952    -0.64618
    -0.64511    -0.64248    -0.63479    -0.63178    -0.63025    -0.62743
    -0.62138    -0.62000    -0.61990    -0.61579    -0.61544    -0.61527
    -0.61313    -0.60920    -0.60870    -0.60507    -0.60387    -0.59731
    -0.59716    -0.59637    -0.59384    -0.59327    -0.59298    -0.59163
    -0.58953    -0.58601    -0.58371    -0.57748    -0.57738    -0.57654
    -0.57622    -0.57510    -0.57432    -0.57406    -0.57243    -0.57137
    -0.57097    -0.56677    -0.56530    -0.56319    -0.56280    -0.56220
    -0.56170    -0.55784    -0.55783    -0.55742    -0.55713    -0.54984
    -0.54864    -0.54850    -0.54846    -0.54386    -0.54083    -0.54026
    -0.53806    -0.53567    -0.52984    -0.52793    -0.52602    -0.52596
    -0.52583    -0.51581    -0.50489    -0.50293    -0.49814    -0.49702
    -0.49599    -0.49324    -0.49217    -0.49117    -0.49034    -0.48923
    -0.48723    -0.48696    -0.48447    -0.48402    -0.48395    -0.48363
    -0.48340    -0.48147    -0.48101    -0.48082    -0.47999    -0.47535
    -0.47400    -0.47050    -0.46970    -0.46506    -0.46473    -0.46469
    -0.46455    -0.46439    -0.46353    -0.46315    -0.46033    -0.45830
    -0.45392    -0.45352    -0.45268    -0.45136    -0.45101    -0.45047
    -0.45036    -0.44955    -0.44879    -0.44592    -0.44483    -0.44400
    -0.44216    -0.44095    -0.43781    -0.43663    -0.43596    -0.43455
    -0.43433    -0.43414    -0.43357    -0.43208    -0.42753    -0.42714
    -0.42706    -0.42388    -0.42264    -0.42131    -0.41926    -0.41899
    -0.41674    -0.41580    -0.41542    -0.41201    -0.40989    -0.40538
    -0.40471    -0.39021    -0.38880    -0.36772    -0.36608    -0.35922
    -0.34696    -0.34571    -0.34504    -0.34249    -0.33418    -0.33241
    -0.32696    -0.32279    -0.32270    -0.31661    -0.31178    -0.30973
    -0.30508    -0.29808    -0.28721    -0.27722    -0.06319    -0.02059
    -0.01785    -0.00030     0.00060     0.00792     0.01529     0.01664
     0.02123     0.02263
 
  Peak memory usage:   1029 Mb
  
  end of program scf
   
 Time(scf)  user:     2878.3  user+sys:     2878.3  wallclock:    10050.1
  
  start of program sole
  
    SCRF                   solvation energy
  iteration          Hartrees            kcal/mol
     0               0.0000000            0.0000
     1              -0.0186075          -11.6764
     2              -0.0198549          -12.4592
  
  solvation energy not yet converged... 
  
  Peak memory usage:    813 Mb
  
  end of program sole
   
 Time(sole)  user:        0.2  user+sys:        0.2  wallclock:        0.7
  
  start of program ch
  
  gridpoints used for charge fit        16529
    out of a possible maximum of        16529
  
   Electrostatic potential fitting constrained to reproduce
     total charge:                yes
     dipole moment:               no 
     traceless quadrupole moment: no 
     traceless octapole moment:   no 
  
  Atomic charges from electrostatic potential: 
   
 Atom       C1           C2           C3           C4           C5      
 Charge   -0.11207     -0.01002     -0.17513      0.18424      0.11257
   
 Atom       C6           C7           C8           C9           C10     
 Charge   -0.22012     -0.38307     -0.12524     -0.19395     -0.18408
   
 Atom       C11          O12          Si13         C14          C15     
 Charge    0.25558     -0.06963     -0.18888      0.21318      0.13092
   
 Atom       C16          C17          C18          C19          C20     
 Charge    0.25087     -0.23990     -0.45701     -0.26059      0.04408
   
 Atom       Si21         O22          C23          C24          P25     
 Charge    0.07032     -0.19847     -0.12762     -0.13544      0.79408
   
 Atom       O26          N27          C28          C29          C30     
 Charge   -0.51350     -0.64702      0.13632      0.20161      0.05720
   
 Atom       C31          C32          C33          C34          C35     
 Charge   -0.00003      0.05071      0.01971     -0.16192     -0.16552
   
 Atom       C36          C37          C38          C39          C40     
 Charge   -0.20051     -0.17372     -0.13731     -0.09186     -0.05181
   
 Atom       C41          C42          C43          C44          C45     
 Charge   -0.13979     -0.09966     -0.16288     -0.12176     -0.07538
   
 Atom       C46          C47          C48          C49          C50     
 Charge   -0.15220     -0.14244     -0.14097     -0.13658     -0.17060
   
 Atom       C51          C52          C53          C54          C55     
 Charge   -0.13252     -0.16165     -0.09916     -0.16780     -0.18236
   
 Atom       C56          C57          C58          C59          C60     
 Charge   -0.12106     -0.15772     -0.16424     -0.13727     -0.13471
   
 Atom       C61          C62          C63          C64          C65     
 Charge   -0.20668     -0.05417     -0.19275     -0.15426     -0.15949
   
 Atom       C66          C67          C68          C69          C70     
 Charge    0.11278     -0.13239     -0.05650     -0.13723      0.09562
   
 Atom       N71          S72          O73          O74          C75     
 Charge   -0.51738      0.63743     -0.45838     -0.43267      0.55051
   
 Atom       C76          C77          C78          C79          N80     
 Charge   -0.39087      0.10888     -0.37268      0.35950     -0.59887
   
 Atom       N81          C82          C83          C84          C85     
 Charge   -0.29911      0.07990     -0.36599     -0.10844      0.27941
   
 Atom       H86          H87          H88          H89          H90     
 Charge    0.10499      0.15356      0.14924      0.17650      0.14308
   
 Atom       H91          H92          H93          H94          H95     
 Charge    0.14323      0.20198      0.16129      0.14719      0.14216
   
 Atom       H96          H97          H98          H99          H100    
 Charge    0.13393      0.10882      0.12766      0.11983      0.12744
   
 Atom       H101         H102         H103         H104         H105    
 Charge    0.10563      0.12629      0.11175      0.08540      0.12648
   
 Atom       H106         H107         H108         H109         H110    
 Charge    0.11331      0.10904      0.14089      0.14066      0.14270
   
 Atom       H111         H112         H113         H114         H115    
 Charge    0.13770      0.14680      0.13637      0.12619      0.11397
   
 Atom       H116         H117         H118         H119         H120    
 Charge    0.13102      0.14283      0.13085      0.13694      0.14403
   
 Atom       H121         H122         H123         H124         H125    
 Charge    0.13851      0.13667      0.13686      0.11293      0.14229
   
 Atom       H126         H127         H128         H129         H130    
 Charge    0.15544      0.12123      0.10127      0.11277      0.14333
   
 Atom       H131         H132         H133         H134         H135    
 Charge    0.15638      0.21742      0.13596      0.19577      0.07570
   
 Atom       H136         H137         H138         H139         H140    
 Charge    0.34444      0.16502      0.21846      0.16100      0.08465
   
 Atom       S141         O142         C143         O144         F145    
 Charge    0.69591     -0.45340      0.50351     -0.45481     -0.14092
   
 Atom       F146         F147         H148    
 Charge   -0.16081     -0.17123      0.35356
  
  sum of atomic charges:     0.000000
   
 RMS Error   1.01E-03 hartrees
 
  Peak memory usage:    816 Mb
  
  end of program ch
   
 Time(ch)  user:       19.0  user+sys:       19.0  wallclock:       62.3
  
  start of program post
  
  Writing input files for PBF
  Peak memory usage:    759 Mb
  
  end of program post
   
 Time(post)  user:        0.9  user+sys:        0.9  wallclock:        3.1

  start of program pbf

Pbf Version 4.10

Molecular surface area:      822.89848   [A2]
Reaction field energy:       -20.85002   [kT]
  Peak memory usage: 722 Mb

  end of program pbf

 Time(pbf)  user:       11.1  user+sys:       11.3  wallclock:       36.2
  
  start of program solv
  
   number of surface charges from PBF   13550
   sum of surface charges     -0.00034
   
  nuclear repulsion energy.......   20880.096233700 hartrees
  Peak memory usage:    894 Mb
  
  end of program solv
   
 Time(solv)  user:       38.4  user+sys:       38.4  wallclock:      122.1
  
  start of program scf
  
 Energy computed with NOPS off.
  
       i  u  d  i  g                   
       t  p  i  c  r                                 RMS    maximum
       e  d  i  u  i                       energy  density   DIIS  
       r  t  s  t  d       total energy    change  change    error 
  
etot    1  N  N  1  U   -5575.59069071153           6.0E-06  1.4E-04
etot    2  N  N  1  U   -5575.59067047831 -2.0E-05  0.0E+00  0.0E+00
  
  
 Energy components, in hartrees:
   (A)  Total zero-electron terms....   20882.74767089096
   (B)    Nuclear-nuclear............   20880.09623370021
   (C)    Nuclear-solvent............       2.65143719076
   (E)  Total one-electron terms.....  -49292.21000046674
   (F)    Electron-nuclear...........  -54825.58486794947
   (G)    Electron-solvent...........      -2.69439569535
   (H)    Kinetic....................    5536.06926317808
   (I)  Total two-electron terms.....   22833.87165909747
   (J)    Coulomb....................   23485.14578180981
   (K)    Exchange+Correlation.......    -651.27412271234
   (L)  Electronic energy............  -26458.33834136928  (E+I)
   (N)  Total quantum mech. energy...   -5575.59067047831  (A+L)
   (O)  Gas phase energy.............   -5575.54908021286
   (P)  Solution phase energy........   -5575.56919122602  (Q+R+S)
   (Q)    Total solute energy........   -5575.54771197372  (N-C-G)
   (R)    Total solvent energy.......      -0.02147925230  (C/2+G/2)
   (S)    Solute cavity energy.......       0.00000000000
   (U)  Reorganization energy........       0.00136823914  (Q-O)
   (V)  Solvation energy.............      -0.02011101315  (P-O)
  
 SCFE:  Solution phase energy: DFT(m06-2x)      -5575.56919122602 hartrees
        SCF iterations:   2
  
 
 HOMO energy:    -0.25382
 LUMO energy:    -0.06410
 
  Orbital energies (hartrees): 
   -90.17749   -90.15693   -78.21159   -67.00983   -67.00631   -25.28911
   -25.28656   -25.28594   -19.69149   -19.68892   -19.65539   -19.65322
   -19.63754   -19.62622   -19.60605   -14.82013   -14.82001   -14.79387
   -14.74013   -10.80498   -10.66327   -10.63588   -10.62562   -10.62404
   -10.61945   -10.60575   -10.60221   -10.58536   -10.58533   -10.58298
   -10.57989   -10.57703   -10.57179   -10.56975   -10.56973   -10.56966
   -10.56764   -10.56493   -10.56484   -10.56323   -10.56220   -10.56213
   -10.56162   -10.56138   -10.55981   -10.55844   -10.55308   -10.55305
   -10.55305   -10.55265   -10.55226   -10.55120   -10.55119   -10.55076
   -10.55064   -10.55045   -10.55011   -10.54997   -10.54979   -10.54979
   -10.54888   -10.54870   -10.54850   -10.54843   -10.54826   -10.54815
   -10.54779   -10.54750   -10.54727   -10.54692   -10.54436   -10.54415
   -10.54326   -10.54257   -10.54221   -10.54198   -10.54173   -10.54160
   -10.54143   -10.54126   -10.54119   -10.54092   -10.54055   -10.53965
   -10.53803   -10.53728   -10.53491   -10.53469   -10.53353   -10.52826
   -10.52698   -10.52640    -8.48835    -8.46520    -6.99102    -6.41057
    -6.40940    -6.40879    -6.38726    -6.38669    -6.38655    -5.54076
    -5.53804    -5.10958    -5.10826    -5.10706    -3.85053    -3.85020
    -3.85014    -3.84787    -3.84746    -3.84724    -1.45413    -1.36346
    -1.36204    -1.24914    -1.23078    -1.22072    -1.18609    -1.13308
    -1.11256    -1.10551    -1.09031    -1.08566    -1.06791    -0.99225
    -0.98175    -0.97176    -0.96729    -0.94531    -0.94525    -0.94159
    -0.93702    -0.93581    -0.93443    -0.92303    -0.92186    -0.91091
    -0.90209    -0.89650    -0.89033    -0.87803    -0.85341    -0.85239
    -0.84479    -0.84266    -0.84180    -0.83659    -0.83654    -0.83634
    -0.83430    -0.83022    -0.82903    -0.82784    -0.82757    -0.82628
    -0.82600    -0.82482    -0.82392    -0.82120    -0.81938    -0.80523
    -0.80120    -0.76441    -0.75740    -0.73793    -0.72978    -0.71736
    -0.71003    -0.70505    -0.69822    -0.69401    -0.69106    -0.68757
    -0.68682    -0.68295    -0.67882    -0.67826    -0.67789    -0.67753
    -0.67642    -0.67556    -0.67125    -0.66933    -0.66890    -0.66634
    -0.66585    -0.66359    -0.66063    -0.65640    -0.65612    -0.65124
    -0.64974    -0.64632    -0.63837    -0.62588    -0.61155    -0.60759
    -0.60580    -0.60212    -0.60000    -0.59001    -0.58268    -0.58044
    -0.57945    -0.57696    -0.57514    -0.57367    -0.57343    -0.57077
    -0.56353    -0.55978    -0.55920    -0.55573    -0.55220    -0.55043
    -0.54718    -0.54477    -0.54012    -0.53765    -0.53307    -0.53188
    -0.53100    -0.52832    -0.52686    -0.52561    -0.52230    -0.51845
    -0.51754    -0.51681    -0.51445    -0.51380    -0.51240    -0.51163
    -0.51010    -0.50807    -0.50460    -0.50185    -0.50172    -0.49956
    -0.49851    -0.49736    -0.49658    -0.49477    -0.49463    -0.49422
    -0.49410    -0.49329    -0.49125    -0.49009    -0.48878    -0.48637
    -0.48453    -0.48390    -0.48321    -0.48199    -0.48055    -0.47575
    -0.47403    -0.47361    -0.47290    -0.47033    -0.46832    -0.46437
    -0.45995    -0.45626    -0.45240    -0.45028    -0.44853    -0.44577
    -0.44443    -0.44282    -0.43986    -0.43740    -0.43275    -0.43120
    -0.42795    -0.42657    -0.42529    -0.42271    -0.42032    -0.41896
    -0.41859    -0.41658    -0.41502    -0.41108    -0.40831    -0.40427
    -0.40386    -0.40346    -0.39930    -0.39545    -0.39471    -0.39265
    -0.39189    -0.39118    -0.39037    -0.38862    -0.38597    -0.38452
    -0.38416    -0.38202    -0.38008    -0.37870    -0.37358    -0.37124
    -0.36348    -0.36032    -0.35611    -0.35310    -0.34900    -0.34566
    -0.34309    -0.34049    -0.33844    -0.33705    -0.33485    -0.33342
    -0.33039    -0.32780    -0.32471    -0.31814    -0.31360    -0.30656
    -0.30386    -0.30253    -0.30225    -0.29914    -0.29566    -0.29417
    -0.29256    -0.29133    -0.29050    -0.28806    -0.28666    -0.28576
    -0.28551    -0.28308    -0.27372    -0.25382    -0.06410    -0.02087
    -0.01892    -0.00053     0.00008     0.00759     0.01483     0.01619
     0.02085     0.02220
 
  Peak memory usage:   1029 Mb
  
  end of program scf
   
 Time(scf)  user:     2772.0  user+sys:     2772.0  wallclock:     6504.6
  
  start of program sole
  
    SCRF                   solvation energy
  iteration          Hartrees            kcal/mol
     0               0.0000000            0.0000
     1              -0.0186075          -11.6764
     2              -0.0198549          -12.4592
     3              -0.0201110          -12.6199
  
  solvation energy not yet converged... 
  
  Peak memory usage:    813 Mb
  
  end of program sole
   
 Time(sole)  user:        0.2  user+sys:        0.2  wallclock:        0.8
  
  start of program ch
  
  gridpoints used for charge fit        16529
    out of a possible maximum of        16529
  
   Electrostatic potential fitting constrained to reproduce
     total charge:                yes
     dipole moment:               no 
     traceless quadrupole moment: no 
     traceless octapole moment:   no 
  
  Atomic charges from electrostatic potential: 
   
 Atom       C1           C2           C3           C4           C5      
 Charge   -0.11163     -0.01002     -0.17569      0.18398      0.11175
   
 Atom       C6           C7           C8           C9           C10     
 Charge   -0.21988     -0.38310     -0.12591     -0.19261     -0.18445
   
 Atom       C11          O12          Si13         C14          C15     
 Charge    0.25572     -0.06974     -0.18774      0.21314      0.13178
   
 Atom       C16          C17          C18          C19          C20     
 Charge    0.25028     -0.23981     -0.45624     -0.25990      0.04459
   
 Atom       Si21         O22          C23          C24          P25     
 Charge    0.07116     -0.19930     -0.12827     -0.13653      0.79571
   
 Atom       O26          N27          C28          C29          C30     
 Charge   -0.51443     -0.64810      0.13665      0.20146      0.05902
   
 Atom       C31          C32          C33          C34          C35     
 Charge    0.00032      0.05179      0.02017     -0.16192     -0.16473
   
 Atom       C36          C37          C38          C39          C40     
 Charge   -0.19955     -0.17393     -0.13687     -0.09225     -0.05127
   
 Atom       C41          C42          C43          C44          C45     
 Charge   -0.13958     -0.09976     -0.16224     -0.12178     -0.07388
   
 Atom       C46          C47          C48          C49          C50     
 Charge   -0.15254     -0.14300     -0.14136     -0.13520     -0.17164
   
 Atom       C51          C52          C53          C54          C55     
 Charge   -0.13366     -0.16187     -0.10079     -0.16748     -0.18164
   
 Atom       C56          C57          C58          C59          C60     
 Charge   -0.12162     -0.15873     -0.16447     -0.13786     -0.13540
   
 Atom       C61          C62          C63          C64          C65     
 Charge   -0.20795     -0.05405     -0.19348     -0.15722     -0.16005
   
 Atom       C66          C67          C68          C69          C70     
 Charge    0.11567     -0.12982     -0.05643     -0.13911      0.09919
   
 Atom       N71          S72          O73          O74          C75     
 Charge   -0.51357      0.64112     -0.46318     -0.43360      0.55444
   
 Atom       C76          C77          C78          C79          N80     
 Charge   -0.39295      0.10647     -0.37588      0.36018     -0.59636
   
 Atom       N81          C82          C83          C84          C85     
 Charge   -0.29855      0.07364     -0.36711     -0.11065      0.27939
   
 Atom       H86          H87          H88          H89          H90     
 Charge    0.10482      0.15372      0.14923      0.17610      0.14324
   
 Atom       H91          H92          H93          H94          H95     
 Charge    0.14320      0.20177      0.16121      0.14737      0.14236
   
 Atom       H96          H97          H98          H99          H100    
 Charge    0.13377      0.10860      0.12757      0.11966      0.12730
   
 Atom       H101         H102         H103         H104         H105    
 Charge    0.10572      0.12628      0.11146      0.08525      0.12635
   
 Atom       H106         H107         H108         H109         H110    
 Charge    0.11311      0.10878      0.14090      0.14074      0.14271
   
 Atom       H111         H112         H113         H114         H115    
 Charge    0.13755      0.14684      0.13647      0.12613      0.11406
   
 Atom       H116         H117         H118         H119         H120    
 Charge    0.13059      0.14260      0.13072      0.13703      0.14405
   
 Atom       H121         H122         H123         H124         H125    
 Charge    0.13859      0.13672      0.13703      0.11292      0.14234
   
 Atom       H126         H127         H128         H129         H130    
 Charge    0.15588      0.12096      0.10129      0.11254      0.14366
   
 Atom       H131         H132         H133         H134         H135    
 Charge    0.15545      0.21751      0.13652      0.19634      0.07539
   
 Atom       H136         H137         H138         H139         H140    
 Charge    0.34604      0.16616      0.21916      0.16162      0.08570
   
 Atom       S141         O142         C143         O144         F145    
 Charge    0.69663     -0.45160      0.50293     -0.45620     -0.14072
   
 Atom       F146         F147         H148    
 Charge   -0.16099     -0.17143      0.35301
  
  sum of atomic charges:     0.000000
   
 RMS Error   1.01E-03 hartrees
 
  Peak memory usage:    816 Mb
  
  end of program ch
   
 Time(ch)  user:       18.4  user+sys:       18.4  wallclock:       37.5
  
  start of program post
  
  Writing input files for PBF
  Peak memory usage:    759 Mb
  
  end of program post
   
 Time(post)  user:        0.8  user+sys:        0.8  wallclock:        2.6

  start of program pbf

Pbf Version 4.10

Molecular surface area:      822.89848   [A2]
Reaction field energy:       -20.69081   [kT]
  Peak memory usage: 722 Mb

  end of program pbf

 Time(pbf)  user:       10.7  user+sys:       11.0  wallclock:       20.8
  
  start of program solv
  
   number of surface charges from PBF   13550
   sum of surface charges     -0.00034
   
  nuclear repulsion energy.......   20880.096233700 hartrees
  Peak memory usage:    894 Mb
  
  end of program solv
   
 Time(solv)  user:       37.8  user+sys:       37.8  wallclock:       71.8
  
  start of program scf
  
 Energy computed with NOPS off.
  
       i  u  d  i  g                   
       t  p  i  c  r                                 RMS    maximum
       e  d  i  u  i                       energy  density   DIIS  
       r  t  s  t  d       total energy    change  change    error 
  
etot    1  N  N  1  U   -5575.59052704114           9.3E-06  2.1E-04
etot    2  N  Y  1  U   -5575.59046373770 -6.3E-05  6.1E-06  3.9E-04
etot    3  N  Y  1  U   -5575.59055518613  9.1E-05  1.9E-07  9.7E-06
etot    4  N  N  1  U   -5575.59055521301  2.7E-08  0.0E+00  0.0E+00
  
  
 Energy components, in hartrees:
   (A)  Total zero-electron terms....   20882.71896267236
   (B)    Nuclear-nuclear............   20880.09623370021
   (C)    Nuclear-solvent............       2.62272897215
   (E)  Total one-electron terms.....  -49292.35546703629
   (F)    Electron-nuclear...........  -54825.76690054439
   (G)    Electron-solvent...........      -2.66563465881
   (H)    Kinetic....................    5536.07706816691
   (I)  Total two-electron terms.....   22834.04594915091
   (J)    Coulomb....................   23485.32077561059
   (K)    Exchange+Correlation.......    -651.27482645968
   (L)  Electronic energy............  -26458.30951788537  (E+I)
   (N)  Total quantum mech. energy...   -5575.59055521301  (A+L)
   (O)  Gas phase energy.............   -5575.54908021286
   (P)  Solution phase energy........   -5575.56910236968  (Q+R+S)
   (Q)    Total solute energy........   -5575.54764952635  (N-C-G)
   (R)    Total solvent energy.......      -0.02145284333  (C/2+G/2)
   (S)    Solute cavity energy.......       0.00000000000
   (U)  Reorganization energy........       0.00143068651  (Q-O)
   (V)  Solvation energy.............      -0.02002215682  (P-O)
  
 SCFE:  Solution phase energy: DFT(m06-2x)      -5575.56910236968 hartrees
        SCF iterations:   4
  
 
 HOMO energy:    -0.25368
 LUMO energy:    -0.06354
 
  Orbital energies (hartrees): 
   -90.17568   -90.15627   -78.21105   -67.00933   -67.00563   -25.28900
   -25.28670   -25.28552   -19.69126   -19.68804   -19.65616   -19.65400
   -19.63504   -19.62674   -19.60549   -14.81918   -14.81586   -14.79078
   -14.73991   -10.80473   -10.66046   -10.63382   -10.62491   -10.62357
   -10.62115   -10.60519   -10.60168   -10.58651   -10.58567   -10.58084
   -10.58069   -10.57801   -10.57182   -10.56997   -10.56978   -10.56967
   -10.56753   -10.56648   -10.56406   -10.56300   -10.56270   -10.56222
   -10.56209   -10.56082   -10.55933   -10.55834   -10.55311   -10.55307
   -10.55291   -10.55270   -10.55240   -10.55137   -10.55134   -10.55090
   -10.55066   -10.55057   -10.55023   -10.55011   -10.55010   -10.54978
   -10.54898   -10.54885   -10.54851   -10.54849   -10.54830   -10.54802
   -10.54759   -10.54748   -10.54708   -10.54634   -10.54478   -10.54436
   -10.54334   -10.54269   -10.54255   -10.54182   -10.54129   -10.54126
   -10.54083   -10.54078   -10.54075   -10.54055   -10.54013   -10.53858
   -10.53819   -10.53710   -10.53437   -10.53417   -10.53298   -10.52727
   -10.52660   -10.52577    -8.48665    -8.46455    -6.99050    -6.40886
    -6.40770    -6.40708    -6.38661    -6.38604    -6.38590    -5.54027
    -5.53738    -5.10906    -5.10773    -5.10654    -3.85004    -3.84971
    -3.84966    -3.84721    -3.84680    -3.84658    -1.45392    -1.36330
    -1.36180    -1.24843    -1.23026    -1.22003    -1.18555    -1.13278
    -1.11249    -1.10468    -1.08979    -1.08418    -1.06561    -0.99177
    -0.98162    -0.97120    -0.96722    -0.94524    -0.94509    -0.94158
    -0.93675    -0.93584    -0.93404    -0.92309    -0.92179    -0.91079
    -0.90158    -0.89658    -0.89015    -0.87734    -0.85337    -0.85202
    -0.84467    -0.84245    -0.84193    -0.83653    -0.83637    -0.83617
    -0.83429    -0.83013    -0.82877    -0.82773    -0.82741    -0.82620
    -0.82579    -0.82463    -0.82368    -0.82114    -0.81896    -0.80440
    -0.80105    -0.76402    -0.75652    -0.73748    -0.72945    -0.71643
    -0.70978    -0.70490    -0.69798    -0.69354    -0.69090    -0.68746
    -0.68607    -0.68281    -0.67874    -0.67816    -0.67767    -0.67731
    -0.67629    -0.67543    -0.67117    -0.66953    -0.66870    -0.66639
    -0.66555    -0.66357    -0.66043    -0.65607    -0.65600    -0.65097
    -0.64953    -0.64591    -0.63807    -0.62560    -0.61093    -0.60740
    -0.60523    -0.60190    -0.59983    -0.58933    -0.58260    -0.58036
    -0.57935    -0.57644    -0.57499    -0.57354    -0.57315    -0.57046
    -0.56309    -0.55961    -0.55894    -0.55550    -0.55170    -0.55012
    -0.54685    -0.54450    -0.53974    -0.53739    -0.53275    -0.53163
    -0.53088    -0.52793    -0.52650    -0.52565    -0.52207    -0.51842
    -0.51736    -0.51666    -0.51435    -0.51358    -0.51206    -0.51146
    -0.50968    -0.50784    -0.50438    -0.50178    -0.50149    -0.49943
    -0.49832    -0.49717    -0.49633    -0.49460    -0.49445    -0.49405
    -0.49357    -0.49301    -0.49089    -0.48968    -0.48858    -0.48627
    -0.48444    -0.48370    -0.48319    -0.48181    -0.48050    -0.47561
    -0.47403    -0.47343    -0.47320    -0.47016    -0.46837    -0.46423
    -0.45993    -0.45614    -0.45230    -0.45009    -0.44840    -0.44549
    -0.44419    -0.44267    -0.43941    -0.43714    -0.43250    -0.43069
    -0.42753    -0.42636    -0.42514    -0.42255    -0.42010    -0.41867
    -0.41824    -0.41646    -0.41477    -0.41079    -0.40785    -0.40407
    -0.40335    -0.40324    -0.39914    -0.39502    -0.39422    -0.39260
    -0.39171    -0.39107    -0.39012    -0.38837    -0.38571    -0.38447
    -0.38378    -0.38157    -0.37989    -0.37845    -0.37328    -0.37072
    -0.36298    -0.36005    -0.35583    -0.35285    -0.34774    -0.34541
    -0.34289    -0.34011    -0.33809    -0.33677    -0.33451    -0.33353
    -0.33011    -0.32743    -0.32432    -0.31731    -0.31322    -0.30634
    -0.30379    -0.30239    -0.30215    -0.29911    -0.29559    -0.29388
    -0.29226    -0.29101    -0.29026    -0.28789    -0.28649    -0.28549
    -0.28529    -0.28273    -0.27362    -0.25368    -0.06354    -0.02072
    -0.01828    -0.00039     0.00039     0.00777     0.01511     0.01646
     0.02108     0.02247
 
  Peak memory usage:   1029 Mb
  
  end of program scf
   
 Time(scf)  user:     8254.0  user+sys:     8254.0  wallclock:    15395.7
  
  start of program sole
  
    SCRF                   solvation energy
  iteration          Hartrees            kcal/mol
     0               0.0000000            0.0000
     1              -0.0186075          -11.6764
     2              -0.0198549          -12.4592
     3              -0.0201110          -12.6199
     4              -0.0200222          -12.5641
  
  stopping: solvation energy converged
  
  iterations:   4    sfinal:    -12.5641 kcal/mol
  
  Peak memory usage:    813 Mb
  
  end of program sole
   
 Time(sole)  user:        0.1  user+sys:        0.1  wallclock:        0.2
  
  start of program post
  
  Writing input files for PBF
  Peak memory usage:    759 Mb
  
  end of program post
   
 Time(post)  user:        0.8  user+sys:        0.8  wallclock:        1.1

 Total cpu seconds     user:   65662.477   user+sys:   65662.477
  
 Total elapsed time:    246210 seconds

Job Toru-SiPh3-NTf-Type-II-E-Sulfonyl-2-chkp-scan-unrestrained.1-SPE completed on tethys at Fri Mar 17 13:08:24 2017
