Job Toru-SiPh3-Type-II-E-1-scan-unrestrained-IRC-min-disp-optimise-SPE started on tethys at Fri Mar 10 14:10:53 2017
jobid: tethys-0-58c2b3ea

  +--------------------------------------------------------------------+
  |  Jaguar version 9.5, release  11                                   |
  |                                                                    |
  |  Copyright Schrodinger, Inc.                                       |
  |  All Rights Reserved.                                              |
  |                                                                    |
  |  The following have contributed to Jaguar (listed alphabetically): |
  |  Mike Beachy, Art Bochevarov, Dale Braden, Yixiang Cao,            |
  |  Chris Cortis, Rich Friesner, Bill Goddard, Hod Greeley,           |
  |  Tom Hughes, Leif Jacobson, Jean-Marc Langlois,                    |
  |  Daniel Mainz, Rob Murphy, Dean Philipp, Tom Pollard,              |
  |  Murco Ringnalda, Mark Watson, Haoyu Yu.                           |
  |                                                                    |
  |  Use of this program should be acknowledged in publications as:    |
  |                                                                    |
  |  Jaguar, version 9.5, Schrodinger, Inc., New York, NY, 2017.       |
  |                                                                    |
  |  A. D. Bochevarov, E. Harder, T. F. Hughes, J. R. Greenwood,       |
  |  D. A. Braden, D. M. Philipp, D. Rinaldo, M. D. Halls,             |
  |  J. Zhang, R. A. Friesner, "Jaguar: A High-Performance Quantum     |
  |  Chemistry Software Program with Strengths in Life and Materials   |
  |  Sciences", Int. J. Quantum Chem., 2013, 113(18), 2110-2142.       |
  +--------------------------------------------------------------------+
  
  start of program pre
  
  Job name: Toru-SiPh3-Type-II-E-1-scan-unrestrained-IRC-min-disp-optimise-SPE
  Executables used: /usr/local/shared/schrodinger/current/jaguar-v9.5/bin/Linux-x86_64
  Temporary files : /scratch/ab2144/Toru-SiPh3-Type-II-E-1-scan-unrestrained-IRC-min-disp-optimise-SPE
  Maestro file (input):  Toru-SiPh3-Type-II-E-1-scan-unrestrained-IRC-min-disp-optimise-SPE.mae
  Maestro file (output): Toru-SiPh3-Type-II-E-1-scan-unrestrained-IRC-min-disp-optimise-SPE.01.mae
  
  basis set:             6-31g**                         
  net molecular charge:    0
  multiplicity:            1
  
  keygrid settings 
    wispc.....   7.500E-01
    ldens.....   0
    denspc....   7.500E-01
  
   grid     daf set  nls  grid set  Q type
  ------    -------  ---  --------  ------
  coarse       1      1       1        1
  medium       2      2       2        1
  fine         3      2       3        0
  ultrafine    4      2       4        1
  charge       0      1      -1        1
  gradient     5      2       4        1
  density      0      1       0        0
  DFT-fine     0      1     -13        0
  DFT-med.     0      1     -13        0
  DFT-grad     0      1     -13        0
  DFT-der2     0      1       0        0
  DFT-cphf     0      1       0        0
  LMP2-enrg    4      2       4        1
  LMP2-grad    5      2       2        1
  DFT-cphf2    0      1       0        0
  PBF-dens     0      1       0        0
  plotting     0      1       0        0
  Rel-grad     0      1     -17        0
  
  idftgrdm  100
  ndftgrdm   50    0    0
  idftgrdf  111
  ndftgrdf   85    0    0
  idftgrdg  111
  ndftgrdg   80    3    0
  idftgrdu  433
  ndftgrdu  105    0    0
  idftgrdd  433
  ndftgrdd  105    0    0
  idftgrdc  433
  ndftgrdc   26    0    0
  idftgrdp  433
  ndftgrdp   18    0    0
  
  number of basis functions....         1571
  
 Input geometry:
                                   angstroms
  atom               x                 y                 z
  C1           -0.8727000000      5.1229000000      1.6387000000 
  C2           -1.6989000000      4.0099000000      1.0949000000 
  C3           -1.3989000000      5.9940000000      2.5074000000 
  C4           -2.9715000000      3.8670000000      1.5276000000 
  C5           -1.1367000000      3.0199000000      0.1270000000 
  C6           -3.5462000000      4.8409000000      2.4845000000 
  C7           -3.7908000000      2.7346000000      1.0549000000 
  C8           -2.8006000000      5.8512000000      2.9443000000 
  C9           -1.8493000000      1.9201000000     -0.1883000000 
  C10           0.2021000000      3.2161000000     -0.4849000000 
  C11          -3.2719000000      1.8088000000      0.2342000000 
  O12          -1.2817000000      0.9406000000     -0.9611000000 
  Si13         -4.3837000000      0.4311000000     -0.3601000000 
  C14           0.4894000000      4.3092000000     -1.2311000000 
  C15           1.2657000000      2.1985000000     -0.2261000000 
  C16           1.8902000000      4.5664000000     -1.6447000000 
  C17          -0.5397000000      5.2917000000     -1.6607000000 
  C18           2.8653000000      3.7272000000     -1.2792000000 
  C19           2.1883000000      5.7830000000     -2.4269000000 
  C20           2.5542000000      2.4999000000     -0.5116000000 
  Si21          3.9724000000      1.3719000000     -0.0404000000 
  O22           0.9602000000      1.0428000000      0.4573000000 
  C23          -0.1959000000      6.3713000000     -2.3729000000 
  C24           1.2070000000      6.6271000000     -2.7625000000 
  P25          -0.1501000000      0.0437000000     -0.2034000000 
  O26          -0.7859000000     -0.5531000000      1.1077000000 
  O27           0.3771000000     -0.9482000000     -1.1769000000 
  C28          -4.6394000000     -0.7839000000      1.0339000000 
  C29          -6.0104000000      1.2295000000     -0.8149000000 
  C30          -3.6881000000     -0.4145000000     -1.8758000000 
  C31           3.9328000000      0.9940000000      1.7935000000 
  C32           3.8963000000     -0.1341000000     -1.1452000000 
  C33           5.5821000000      2.2545000000     -0.3283000000 
  C34          -4.0448000000     -0.6038000000      2.2269000000 
  C35          -5.5458000000     -1.9438000000      0.8448000000 
  C36          -6.0412000000      2.2358000000     -1.7065000000 
  C37          -7.2746000000      0.8148000000     -0.1542000000 
  C38          -3.3472000000      0.3062000000     -2.9595000000 
  C39          -3.4927000000     -1.8854000000     -1.9014000000 
  C40           3.0447000000      1.5940000000      2.6089000000 
  C41           4.9710000000      0.1176000000      2.3920000000 
  C42           4.7387000000     -1.1674000000     -0.9745000000 
  C43           2.9770000000     -0.1443000000     -2.3114000000 
  C44           5.9082000000      3.3098000000      0.4368000000 
  C45           6.5084000000      1.8179000000     -1.4019000000 
  C46          -4.3172000000     -1.5320000000      3.3439000000 
  C47          -5.1495000000     -2.5653000000      3.1703000000 
  C48          -5.7868000000     -2.7858000000      1.8569000000 
  C49          -7.3205000000      2.8839000000     -2.0618000000 
  C50          -8.4574000000      2.4866000000     -1.4810000000 
  C51          -8.4316000000      1.4072000000     -0.4752000000 
  C52          -2.7882000000     -0.3560000000     -4.1561000000 
  C53          -2.6261000000     -1.6828000000     -4.1736000000 
  C54          -3.0023000000     -2.4844000000     -2.9944000000 
  C55           3.0357000000      1.2989000000      4.0566000000 
  C56           3.9374000000      0.4594000000      4.5751000000 
  C57           4.9622000000     -0.1470000000      3.7044000000 
  C58           4.6936000000     -2.3310000000     -1.8838000000 
  C59           3.8447000000     -2.3424000000     -2.9158000000 
  C60           2.9534000000     -1.1898000000     -3.1470000000 
  C61           7.1837000000      4.0226000000      0.2172000000 
  C62           8.0183000000      3.6211000000     -0.7486000000 
  C63           7.6630000000      2.4666000000     -1.5984000000 
  C64           1.6906000000     -6.4400000000     -3.4495000000 
  C65           1.4036000000     -6.0278000000     -2.1470000000 
  C66           0.9320000000     -4.7348000000     -1.8982000000 
  C67           0.7569000000     -3.8543000000     -2.9754000000 
  C68           1.0425000000     -4.2672000000     -4.2760000000 
  C69           1.5066000000     -5.5618000000     -4.5176000000 
  C70           0.6214000000     -4.2987000000     -0.4687000000 
  N71           1.5826000000     -3.3142000000      0.0107000000 
  S72           2.4664000000     -3.5435000000      1.3965000000 
  O73           2.7847000000     -4.9673000000      1.4787000000 
  O74           3.4925000000     -2.5001000000      1.3939000000 
  C75           1.3930000000     -3.1413000000      2.8176000000 
  C76           1.3362000000     -1.8148000000      3.2447000000 
  C77           0.4987000000     -1.5219000000      4.3177000000 
  C78          -0.2229000000     -2.5590000000      4.9090000000 
  C79          -0.0815000000     -3.8491000000      4.3942000000 
  N80           0.7093000000     -4.1444000000      3.3549000000 
  N81          -1.2210000000     -3.1419000000      0.8592000000 
  C82          -2.2129000000     -3.8069000000      1.3599000000 
  C83          -2.6401000000     -4.9269000000      0.5317000000 
  C84          -1.8409000000     -4.9142000000     -0.5550000000 
  C85          -0.8632000000     -3.7894000000     -0.4029000000 
  H86           0.1642000000      5.2342000000      1.3511000000 
  H87          -0.7941000000      6.8011000000      2.9003000000 
  H88          -4.5717000000      4.7371000000      2.8167000000 
  H89          -4.8211000000      2.6616000000      1.3830000000 
  H90          -3.2206000000      6.5615000000      3.6448000000 
  H91          -1.5851000000      5.1419000000     -1.4240000000 
  H92           3.8851000000      3.9346000000     -1.5760000000 
  H93           3.2049000000      6.0016000000     -2.7319000000 
  H94          -0.9611000000      7.0727000000     -2.6801000000 
  H95           1.4399000000      7.5153000000     -3.3357000000 
  H96           1.4986000000     -2.3553000000     -0.3333000000 
  H97          -3.3734000000      0.2252000000      2.4015000000 
  H98          -6.0261000000     -2.1078000000     -0.1118000000 
  H99          -5.1351000000      2.6071000000     -2.1617000000 
  H100         -7.2782000000      0.0487000000      0.6058000000 
  H101         -3.4370000000      1.3822000000     -2.9651000000 
  H102         -3.7295000000     -2.4888000000     -1.0391000000 
  H103          2.3312000000      2.3130000000      2.2365000000 
  H104          5.7675000000     -0.2857000000      1.7873000000 
  H105          5.4739000000     -1.1666000000     -0.1884000000 
  H106          2.3236000000      0.6949000000     -2.5065000000 
  H107          5.2443000000      3.6525000000      1.2211000000 
  H108          6.2574000000      0.9831000000     -2.0416000000 
  H109         -3.8397000000     -1.3744000000      4.3024000000 
  H110         -5.3478000000     -3.2471000000      3.9869000000 
  H111         -6.4513000000     -3.6284000000      1.7161000000 
  H112         -7.3340000000      3.6831000000     -2.7915000000 
  H113         -9.3952000000      2.9616000000     -1.7385000000 
  H114         -9.3500000000      1.1046000000      0.0112000000 
  H115         -2.5072000000      0.2367000000     -5.0169000000 
  H116         -2.2133000000     -2.1701000000     -5.0474000000 
  H117         -2.8616000000     -3.5573000000     -3.0102000000 
  H118          2.2926000000      1.7595000000      4.6947000000 
  H119          3.9296000000      0.2384000000      5.6345000000 
  H120          5.7231000000     -0.7849000000      4.1350000000 
  H121          5.3548000000     -3.1711000000     -1.7155000000 
  H122          3.8143000000     -3.1918000000     -3.5856000000 
  H123          2.2804000000     -1.1925000000     -3.9946000000 
  H124          7.4405000000      4.8698000000      0.8397000000 
  H125          8.9529000000      4.1422000000     -0.9110000000 
  H126          8.3370000000      2.1500000000     -2.3838000000 
  H127          2.0605000000     -7.4456000000     -3.6272000000 
  H128          1.5611000000     -6.7089000000     -1.3149000000 
  H129          0.4305000000     -2.8334000000     -2.7968000000 
  H130          0.9093000000     -3.5722000000     -5.1001000000 
  H131          1.7294000000     -5.8813000000     -5.5315000000 
  H132          0.7146000000     -5.1653000000      0.1895000000 
  H133          1.9230000000     -1.0582000000      2.7428000000 
  H134          0.4133000000     -0.5034000000      4.6835000000 
  H135         -0.8812000000     -2.3772000000      5.7526000000 
  H136         -0.6253000000     -4.6832000000      4.8332000000 
  H137         -0.9204000000     -1.5793000000      1.0661000000 
  H138         -2.6508000000     -3.5217000000      2.3102000000 
  H139         -3.4422000000     -5.6142000000      0.7672000000 
  H140         -1.8455000000     -5.6029000000     -1.3897000000 
  H141         -0.9641000000     -3.0309000000     -1.1861000000 
   
  principal moments of inertia:
        amu*angstrom^2:    18037.75999    21976.03033    28425.53487
                g*cm^2: 2.99524014E-36 3.64920523E-36 4.72017053E-36
   
  rotational constants:
               cm^(-1):      0.00093457      0.00076709      0.00059305
                   GHz:      0.02801784      0.02299683      0.01777905
   
  Molecular weight:    1177.32 amu
   
  Stoichiometry: Si2C72PN3H56SO6
[running at reduced cpu priority]
  Molecular Point Group: C1      
  Point Group used: C1
  
  nuclear repulsion energy.......   17370.278587499 hartrees
 
 Non-default options chosen:
   SCF calculation type: DFT(m06-2x)                 
   DFT=M06-2X
   Solvation energy will be computed using PBF
     -solute cavity energy will not be included
     -surface area terms will not be included
   Highest accuracy cutoffs used in SCF
   Solvent: other                                                           
   Internal dielectric constant:    1.000
   Continuum dielectric constant:   2.380
   Solvent probe molecule radius:   2.760
  
 Temporary integer options set:
     73=  2
  
  atom       vdw   vdw2    cov     mass  grid  daf  charge   basis
  C1        1.949  1.900  0.770   12.000    Y    Y      Y    6-31g**
  C2        1.949  1.900  0.770   12.000    Y    Y      Y    6-31g**
  C3        1.949  1.900  0.770   12.000    Y    Y      Y    6-31g**
  C4        1.949  1.900  0.770   12.000    Y    Y      Y    6-31g**
  C5        1.949  1.900  0.770   12.000    Y    Y      Y    6-31g**
  C6        1.949  1.900  0.770   12.000    Y    Y      Y    6-31g**
  C7        1.949  1.900  0.770   12.000    Y    Y      Y    6-31g**
  C8        1.949  1.900  0.770   12.000    Y    Y      Y    6-31g**
  C9        1.949  1.900  0.770   12.000    Y    Y      Y    6-31g**
  C10       1.949  1.900  0.770   12.000    Y    Y      Y    6-31g**
  C11       1.949  1.900  0.770   12.000    Y    Y      Y    6-31g**
  O12       1.702  1.600  0.730   15.995    Y    Y      Y    6-31g**
  Si13      2.217  2.147  1.110   27.977    Y    Y      Y    6-31g**
  C14       1.949  1.900  0.770   12.000    Y    Y      Y    6-31g**
  C15       1.949  1.900  0.770   12.000    Y    Y      Y    6-31g**
  C16       1.949  1.900  0.770   12.000    Y    Y      Y    6-31g**
  C17       1.949  1.900  0.770   12.000    Y    Y      Y    6-31g**
  C18       1.949  1.900  0.770   12.000    Y    Y      Y    6-31g**
  C19       1.949  1.900  0.770   12.000    Y    Y      Y    6-31g**
  C20       1.949  1.900  0.770   12.000    Y    Y      Y    6-31g**
  Si21      2.217  2.147  1.110   27.977    Y    Y      Y    6-31g**
  O22       1.702  1.600  0.730   15.995    Y    Y      Y    6-31g**
  C23       1.949  1.900  0.770   12.000    Y    Y      Y    6-31g**
  C24       1.949  1.900  0.770   12.000    Y    Y      Y    6-31g**
  P25       2.147  2.074  1.060   30.974    Y    Y      Y    6-31g**
  O26       1.702  1.600  0.730   15.995    Y    Y      Y    6-31g**
  O27       1.702  1.600  0.730   15.995    Y    Y      Y    6-31g**
  C28       1.949  1.900  0.770   12.000    Y    Y      Y    6-31g**
  C29       1.949  1.900  0.770   12.000    Y    Y      Y    6-31g**
  C30       1.949  1.900  0.770   12.000    Y    Y      Y    6-31g**
  C31       1.949  1.900  0.770   12.000    Y    Y      Y    6-31g**
  C32       1.949  1.900  0.770   12.000    Y    Y      Y    6-31g**
  C33       1.949  1.900  0.770   12.000    Y    Y      Y    6-31g**
  C34       1.949  1.900  0.770   12.000    Y    Y      Y    6-31g**
  C35       1.949  1.900  0.770   12.000    Y    Y      Y    6-31g**
  C36       1.949  1.900  0.770   12.000    Y    Y      Y    6-31g**
  C37       1.949  1.900  0.770   12.000    Y    Y      Y    6-31g**
  C38       1.949  1.900  0.770   12.000    Y    Y      Y    6-31g**
  C39       1.949  1.900  0.770   12.000    Y    Y      Y    6-31g**
  C40       1.949  1.900  0.770   12.000    Y    Y      Y    6-31g**
  C41       1.949  1.900  0.770   12.000    Y    Y      Y    6-31g**
  C42       1.949  1.900  0.770   12.000    Y    Y      Y    6-31g**
  C43       1.949  1.900  0.770   12.000    Y    Y      Y    6-31g**
  C44       1.949  1.900  0.770   12.000    Y    Y      Y    6-31g**
  C45       1.949  1.900  0.770   12.000    Y    Y      Y    6-31g**
  C46       1.949  1.900  0.770   12.000    Y    Y      Y    6-31g**
  C47       1.949  1.900  0.770   12.000    Y    Y      Y    6-31g**
  C48       1.949  1.900  0.770   12.000    Y    Y      Y    6-31g**
  C49       1.949  1.900  0.770   12.000    Y    Y      Y    6-31g**
  C50       1.949  1.900  0.770   12.000    Y    Y      Y    6-31g**
  C51       1.949  1.900  0.770   12.000    Y    Y      Y    6-31g**
  C52       1.949  1.900  0.770   12.000    Y    Y      Y    6-31g**
  C53       1.949  1.900  0.770   12.000    Y    Y      Y    6-31g**
  C54       1.949  1.900  0.770   12.000    Y    Y      Y    6-31g**
  C55       1.949  1.900  0.770   12.000    Y    Y      Y    6-31g**
  C56       1.949  1.900  0.770   12.000    Y    Y      Y    6-31g**
  C57       1.949  1.900  0.770   12.000    Y    Y      Y    6-31g**
  C58       1.949  1.900  0.770   12.000    Y    Y      Y    6-31g**
  C59       1.949  1.900  0.770   12.000    Y    Y      Y    6-31g**
  C60       1.949  1.900  0.770   12.000    Y    Y      Y    6-31g**
  C61       1.949  1.900  0.770   12.000    Y    Y      Y    6-31g**
  C62       1.949  1.900  0.770   12.000    Y    Y      Y    6-31g**
  C63       1.949  1.900  0.770   12.000    Y    Y      Y    6-31g**
  C64       1.949  1.900  0.770   12.000    Y    Y      Y    6-31g**
  C65       1.949  1.900  0.770   12.000    Y    Y      Y    6-31g**
  C66       1.949  1.900  0.770   12.000    Y    Y      Y    6-31g**
  C67       1.949  1.900  0.770   12.000    Y    Y      Y    6-31g**
  C68       1.949  1.900  0.770   12.000    Y    Y      Y    6-31g**
  C69       1.949  1.900  0.770   12.000    Y    Y      Y    6-31g**
  C70       1.949  1.900  0.770   12.000    Y    Y      Y    6-31g**
  N71       1.831  1.600  0.750   14.003    Y    Y      Y    6-31g**
  S72       2.070  1.900  1.020   31.972    Y    Y      Y    6-31g**
  O73       1.702  1.600  0.730   15.995    Y    Y      Y    6-31g**
  O74       1.702  1.600  0.730   15.995    Y    Y      Y    6-31g**
  C75       1.949  1.900  0.770   12.000    Y    Y      Y    6-31g**
  C76       1.949  1.900  0.770   12.000    Y    Y      Y    6-31g**
  C77       1.949  1.900  0.770   12.000    Y    Y      Y    6-31g**
  C78       1.949  1.900  0.770   12.000    Y    Y      Y    6-31g**
  C79       1.949  1.900  0.770   12.000    Y    Y      Y    6-31g**
  N80       1.831  1.600  0.750   14.003    Y    Y      Y    6-31g**
  N81       1.831  1.600  0.750   14.003    Y    Y      Y    6-31g**
  C82       1.949  1.900  0.770   12.000    Y    Y      Y    6-31g**
  C83       1.949  1.900  0.770   12.000    Y    Y      Y    6-31g**
  C84       1.949  1.900  0.770   12.000    Y    Y      Y    6-31g**
  C85       1.949  1.900  0.770   12.000    Y    Y      Y    6-31g**
  H86       1.597  1.150  0.320    1.008    Y    Y      Y    6-31g**
  H87       1.597  1.150  0.320    1.008    Y    Y      Y    6-31g**
  H88       1.597  1.150  0.320    1.008    Y    Y      Y    6-31g**
  H89       1.597  1.150  0.320    1.008    Y    Y      Y    6-31g**
  H90       1.597  1.150  0.320    1.008    Y    Y      Y    6-31g**
  H91       1.597  1.150  0.320    1.008    Y    Y      Y    6-31g**
  H92       1.597  1.150  0.320    1.008    Y    Y      Y    6-31g**
  H93       1.597  1.150  0.320    1.008    Y    Y      Y    6-31g**
  H94       1.597  1.150  0.320    1.008    Y    Y      Y    6-31g**
  H95       1.597  1.150  0.320    1.008    Y    Y      Y    6-31g**
  H96       1.597  1.150  0.320    1.008    Y    Y      Y    6-31g**
  H97       1.597  1.150  0.320    1.008    Y    Y      Y    6-31g**
  H98       1.597  1.150  0.320    1.008    Y    Y      Y    6-31g**
  H99       1.597  1.150  0.320    1.008    Y    Y      Y    6-31g**
  H100      1.597  1.150  0.320    1.008    Y    Y      Y    6-31g**
  H101      1.597  1.150  0.320    1.008    Y    Y      Y    6-31g**
  H102      1.597  1.150  0.320    1.008    Y    Y      Y    6-31g**
  H103      1.597  1.150  0.320    1.008    Y    Y      Y    6-31g**
  H104      1.597  1.150  0.320    1.008    Y    Y      Y    6-31g**
  H105      1.597  1.150  0.320    1.008    Y    Y      Y    6-31g**
  H106      1.597  1.150  0.320    1.008    Y    Y      Y    6-31g**
  H107      1.597  1.150  0.320    1.008    Y    Y      Y    6-31g**
  H108      1.597  1.150  0.320    1.008    Y    Y      Y    6-31g**
  H109      1.597  1.150  0.320    1.008    Y    Y      Y    6-31g**
  H110      1.597  1.150  0.320    1.008    Y    Y      Y    6-31g**
  H111      1.597  1.150  0.320    1.008    Y    Y      Y    6-31g**
  H112      1.597  1.150  0.320    1.008    Y    Y      Y    6-31g**
  H113      1.597  1.150  0.320    1.008    Y    Y      Y    6-31g**
  H114      1.597  1.150  0.320    1.008    Y    Y      Y    6-31g**
  H115      1.597  1.150  0.320    1.008    Y    Y      Y    6-31g**
  H116      1.597  1.150  0.320    1.008    Y    Y      Y    6-31g**
  H117      1.597  1.150  0.320    1.008    Y    Y      Y    6-31g**
  H118      1.597  1.150  0.320    1.008    Y    Y      Y    6-31g**
  H119      1.597  1.150  0.320    1.008    Y    Y      Y    6-31g**
  H120      1.597  1.150  0.320    1.008    Y    Y      Y    6-31g**
  H121      1.597  1.150  0.320    1.008    Y    Y      Y    6-31g**
  H122      1.597  1.150  0.320    1.008    Y    Y      Y    6-31g**
  H123      1.597  1.150  0.320    1.008    Y    Y      Y    6-31g**
  H124      1.597  1.150  0.320    1.008    Y    Y      Y    6-31g**
  H125      1.597  1.150  0.320    1.008    Y    Y      Y    6-31g**
  H126      1.597  1.150  0.320    1.008    Y    Y      Y    6-31g**
  H127      1.597  1.150  0.320    1.008    Y    Y      Y    6-31g**
  H128      1.597  1.150  0.320    1.008    Y    Y      Y    6-31g**
  H129      1.597  1.150  0.320    1.008    Y    Y      Y    6-31g**
  H130      1.597  1.150  0.320    1.008    Y    Y      Y    6-31g**
  H131      1.597  1.150  0.320    1.008    Y    Y      Y    6-31g**
  H132      1.597  1.150  0.320    1.008    Y    Y      Y    6-31g**
  H133      1.597  1.150  0.320    1.008    Y    Y      Y    6-31g**
  H134      1.597  1.150  0.320    1.008    Y    Y      Y    6-31g**
  H135      1.597  1.150  0.320    1.008    Y    Y      Y    6-31g**
  H136      1.597  1.150  0.320    1.008    Y    Y      Y    6-31g**
  H137      1.597  1.150  0.320    1.008    Y    Y      Y    6-31g**
  H138      1.597  1.150  0.320    1.008    Y    Y      Y    6-31g**
  H139      1.597  1.150  0.320    1.008    Y    Y      Y    6-31g**
  H140      1.597  1.150  0.320    1.008    Y    Y      Y    6-31g**
  H141      1.597  1.150  0.320    1.008    Y    Y      Y    6-31g**
  
  Peak memory usage:    766 Mb
  
  end of program pre
   
 Time(pre)  user:        0.8  user+sys:        0.8  wallclock:        1.3
  
  start of program onee
  
  smallest eigenvalue of S:    2.242E-04
  number of canonical orbitals.....         1564
  Peak memory usage:    893 Mb
  
  end of program onee
   
 Time(onee)  user:       14.3  user+sys:       14.3  wallclock:       16.1
  
  start of program hfig
  
  initial wavefunction generated automatically from atomic wavefunctions
 
  Irreducible     Total no   No of occupied orbitals 
  representation  orbitals   Shell_1  Shell_2    ...
  No Symm         1564        308
  ------------------------
  Orbital occupation/shell    1.000
 
  Peak memory usage:    826 Mb
  
  end of program hfig
   
 Time(hfig)  user:       27.6  user+sys:       27.6  wallclock:       33.5
  
  start of program probe
  
  Peak memory usage:    820 Mb
  
  end of program probe
   
 Time(probe)  user:       21.6  user+sys:       21.6  wallclock:       27.6
  
  start of program grid
  
   grid     grid set  grid #  grid sym
  ------    --------  ------  --------
  coarse        0        0        1
  medium        2        1        1
  fine          0        0        1
  ultrafine     4        2        1
  charge       -1        3        1
  gradient      4        2        1
  density       0        0        1
  DFT-fine    -13        4        1
  DFT-med.    -13        4        1
  DFT-grad    -13        4        1
  DFT-der2      0        0        1
  DFT-cphf      0        0        1
  LMP2-enrg     4        2        1
  LMP2-grad     2        1        1
  DFT-cphf2     0        0        1
  PBF-dens      0        0        1
  plotting      0        0        1
  Rel-grad    -17        0        1
  
  number of gridpoints: 
     atom        C1       C2       C3       C4       C5       C6       C7
  grid # 1       97      101       94      101      100       96       92
  grid # 2      338      360      336      367      358      335      335
  grid # 3       31       25       41       42       15       46       16
  grid # 4    48124    48124    48124    48124    48124    48124    48124
   
  number of gridpoints: 
     atom        C8       C9      C10      C11      O12     Si13      C14
  grid # 1       94       97      100      100      112      473      102
  grid # 2      335      358      355      357      436      473      360
  grid # 3       49       19       13        9       59        9       31
  grid # 4    48124    48124    48124    48124    47716    38542    48124
   
  number of gridpoints: 
     atom       C15      C16      C17      C18      C19      C20     Si21
  grid # 1       97      102       97       94       98      101      473
  grid # 2      355      366      338      334      340      360      473
  grid # 3       12       41       33       27       47       12        9
  grid # 4    48124    48124    48124    48124    48124    48124    38542
   
  number of gridpoints: 
     atom       O22      C23      C24      P25      O26      O27      C28
  grid # 1      113       95       94      440      111      116       99
  grid # 2      435      338      339      440      409      453      357
  grid # 3       46       42       47        7       49       37        9
  grid # 4    47716    48124    48124    38640    47716    47716    48124
   
  number of gridpoints: 
     atom       C29      C30      C31      C32      C33      C34      C35
  grid # 1      102      101      100      100      100       92       93
  grid # 2      360      358      358      359      357      334      328
  grid # 3       21       21        9       11       12       19        9
  grid # 4    48124    48124    48124    48124    48124    48124    48124
   
  number of gridpoints: 
     atom       C36      C37      C38      C39      C40      C41      C42
  grid # 1       93       96       94       96       93       96       93
  grid # 2      336      340      334      337      332      334      329
  grid # 3       30       31       26       23       13       18        8
  grid # 4    48124    48124    48124    48124    48124    48124    48124
   
  number of gridpoints: 
     atom       C43      C44      C45      C46      C47      C48      C49
  grid # 1       96       92       96       93       94       92       94
  grid # 2      335      335      339      331      332      332      336
  grid # 3       16       20       29       26       26       18       44
  grid # 4    48124    48124    48124    48124    48124    48124    48124
   
  number of gridpoints: 
     atom       C50      C51      C52      C53      C54      C55      C56
  grid # 1       94       94       93       93       93       93       94
  grid # 2      336      337      335      334      335      331      334
  grid # 3       47       44       37       35       30       23       29
  grid # 4    48124    48124    48124    48124    48124    48124    48124
   
  number of gridpoints: 
     atom       C57      C58      C59      C60      C61      C62      C63
  grid # 1       94       92       93       93       93       94       94
  grid # 2      334      333      332      332      335      335      336
  grid # 3       28       18       24       21       38       43       41
  grid # 4    48124    48124    48124    48124    48124    48124    48124
   
  number of gridpoints: 
     atom       C64      C65      C66      C67      C68      C69      C70
  grid # 1       96       95      100       95       95       96       90
  grid # 2      332      332      366      328      329      330      317
  grid # 3       34       27       14       16       21       32        6
  grid # 4    48124    48124    48124    48124    48124    48124    48124
   
  number of gridpoints: 
     atom       N71      S72      O73      O74      C75      C76      C77
  grid # 1       98      438      123      120       96       95       95
  grid # 2      352      438      500      474      356      325      330
  grid # 3       17       15      271      102       32       23       29
  grid # 4    47928    48492    47716    47716    48124    48124    48124
   
  number of gridpoints: 
     atom       C78      C79      N80      N81      C82      C83      C84
  grid # 1       96       96      112      106       92       92       93
  grid # 2      328      337      423      389      329      328      328
  grid # 3       36       29       99        8       13       19       10
  grid # 4    48124    48124    47928    47928    48124    48124    48124
   
  number of gridpoints: 
     atom       C85      H86      H87      H88      H89      H90      H91
  grid # 1       92      111      118      118      112      118      114
  grid # 2      309      433      452      446      429      453      434
  grid # 3        6      235      417      361      206      424      243
  grid # 4    48124    48426    48426    48426    48426    48426    48426
   
  number of gridpoints: 
     atom       H92      H93      H94      H95      H96      H97      H98
  grid # 1      110      118      118      118      101      111      112
  grid # 2      426      443      449      450      405      428      428
  grid # 3      192      362      411      417       73      185      229
  grid # 4    48426    48426    48426    48426    48426    48426    48426
   
  number of gridpoints: 
     atom       H99     H100     H101     H102     H103     H104     H105
  grid # 1      109      111      109      106      110      108      109
  grid # 2      427      429      424      416      423      424      419
  grid # 3      195      214      181      105      175      214      153
  grid # 4    48426    48426    48426    48426    48426    48426    48426
   
  number of gridpoints: 
     atom      H106     H107     H108     H109     H110     H111     H112
  grid # 1      112      112      112      116      117      117      118
  grid # 2      426      438      433      444      451      451      452
  grid # 3      197      265      246      314      393      374      421
  grid # 4    48426    48426    48426    48426    48426    48426    48426
   
  number of gridpoints: 
     atom      H113     H114     H115     H116     H117     H118     H119
  grid # 1      118      118      118      116      111      117      117
  grid # 2      453      453      451      446      438      443      452
  grid # 3      425      423      404      336      246      326      390
  grid # 4    48426    48426    48426    48426    48426    48426    48426
   
  number of gridpoints: 
     atom      H120     H121     H122     H123     H124     H125     H126
  grid # 1      117      117      114      114      118      118      118
  grid # 2      451      449      441      439      452      453      453
  grid # 3      404      373      276      265      414      423      424
  grid # 4    48426    48426    48426    48426    48426    48426    48426
   
  number of gridpoints: 
     atom      H127     H128     H129     H130     H131     H132     H133
  grid # 1      118      113      105      113      117      102      106
  grid # 2      450      439      411      439      450      416      417
  grid # 3      419      303       82      282      409      136       96
  grid # 4    48426    48426    48426    48426    48426    48426    48426
   
  number of gridpoints: 
     atom      H134     H135     H136     H137     H138     H139     H140
  grid # 1      113      117      117      100      111      116      112
  grid # 2      442      447      452      392      431      457      446
  grid # 3      274      359      412       84      171      402      299
  grid # 4    48426    48426    48426    48426    48426    48426    48426
   
  number of gridpoints: 
     atom      H141    total
  grid # 1      101    16050
  grid # 2      401    54632
  grid # 3       36    18665
  grid # 4    48426  6771080
   
  Peak memory usage:    793 Mb
  
  end of program grid
   
 Time(grid)  user:     1032.7  user+sys:     1032.7  wallclock:     1160.2
  
  start of program rwr
  
  Peak memory usage:    802 Mb
  
  end of program rwr
   
 Time(rwr)  user:       65.8  user+sys:       65.8  wallclock:       74.3
  
  start of program scf
  
 number of electrons..........        616
 number of alpha electrons....        308
 number of beta electrons.....        308
 number of orbitals, total....       1564
 number of doubly-occ'd orbs..        308
 number of open shell orbs....          0
 number of occupied orbitals..        308
 number of virtual orbitals...       1256
 number of hamiltonians.......          1
 number of shells.............          1
 SCF type: DFT=M06-2X
 Energy computed with NOPS off.
  
       i  u  d  i  g                   
       t  p  i  c  r                                 RMS    maximum
       e  d  i  u  i                       energy  density   DIIS  
       r  t  s  t  d       total energy    change  change    error 
  
etot    1  N  N  1  U   -4700.07857884028           2.3E-03  1.1E-01
etot    2  N  Y  1  U   -4706.41713231051  6.3E+00  2.5E-03  1.4E-01
etot    3  N  Y  1  U   -4705.04620607719 -1.4E+00  2.1E-03  9.7E-02
etot    4  N  Y  1  U   -4709.74188742108  4.7E+00  5.8E-04  4.2E-02
etot    5  N  Y  1  U   -4709.99915180524  2.6E-01  2.3E-04  1.1E-02
etot    6  N  Y  1  U   -4710.05334817882  5.4E-02  7.7E-05  4.6E-03
etot    7  N  Y  1  U   -4710.06205201753  8.7E-03  2.4E-05  1.6E-03
etot    8  N  Y  1  U   -4710.06278636686  7.3E-04  9.2E-06  5.4E-04
etot    9  N  Y  1  U   -4710.06288399522  9.8E-05  3.5E-06  1.8E-04
etot   10  N  N  1  U   -4710.06289998211  1.6E-05  0.0E+00  0.0E+00
  
  
 Energy components, in hartrees:
   (A)  Nuclear repulsion............   17370.27858749917
   (E)  Total one-electron terms.....  -41077.20745494345
   (F)    Electron-nuclear...........  -45752.52756096522
   (H)    Kinetic....................    4675.32010602177
   (I)  Total two-electron terms.....   18996.86596746217
   (J)    Coulomb....................   19570.24730540294
   (K)    Exchange+Correlation.......    -573.38133794077
   (L)  Electronic energy............  -22080.34148748128  (E+I)
   (M)  -V/T.........................       2.00743110486  (-(A+F+I)/H)
   (N)  Total energy.................   -4710.06289998211  (A+L)
   (O)  Gas phase energy.............   -4710.06289998211
  
 SCFE: SCF energy: DFT(m06-2x)     -4710.06289998211 hartrees   iterations:  10
  
 
 HOMO energy:    -0.25884
 LUMO energy:    -0.02443
 
  Orbital energies (hartrees): 
   -90.13655   -78.22192   -67.01979   -67.00500   -19.70078   -19.69699
   -19.65458   -19.61342   -19.61331   -19.60980   -14.78027   -14.76853
   -14.76781   -10.63177   -10.62926   -10.60798   -10.60494   -10.60253
   -10.59244   -10.58758   -10.57901   -10.57641   -10.57629   -10.57489
   -10.57446   -10.57355   -10.57095   -10.56949   -10.56871   -10.56841
   -10.56578   -10.56480   -10.56479   -10.56374   -10.56278   -10.56274
   -10.56221   -10.56094   -10.56036   -10.55996   -10.55926   -10.55867
   -10.55803   -10.55749   -10.55693   -10.55677   -10.55515   -10.55465
   -10.55435   -10.55338   -10.55326   -10.55246   -10.55232   -10.55100
   -10.55009   -10.54974   -10.54872   -10.54838   -10.54802   -10.54748
   -10.54730   -10.54726   -10.54672   -10.54644   -10.54572   -10.54405
   -10.54377   -10.54354   -10.54330   -10.54304   -10.54200   -10.54079
   -10.54031   -10.54002   -10.53969   -10.53712   -10.53659   -10.53329
   -10.52979   -10.52941   -10.52773   -10.52672   -10.52625   -10.52599
   -10.51722    -8.44564    -7.00110    -6.36784    -6.36726    -6.36640
    -5.55069    -5.53576    -5.11928    -5.11849    -5.11748    -3.86055
    -3.86018    -3.85992    -3.84579    -3.84525    -3.84482    -1.24308
    -1.20957    -1.19508    -1.14904    -1.09752    -1.08444    -1.07554
    -1.05998    -1.01420    -0.98942    -0.97323    -0.95843    -0.95112
    -0.94850    -0.94316    -0.93875    -0.93444    -0.92909    -0.92332
    -0.91654    -0.90666    -0.89630    -0.88655    -0.87287    -0.86392
    -0.85997    -0.85283    -0.84993    -0.84518    -0.84175    -0.83853
    -0.83812    -0.83511    -0.83437    -0.83185    -0.83165    -0.82966
    -0.82957    -0.82581    -0.82425    -0.82040    -0.81439    -0.81132
    -0.80618    -0.76688    -0.75438    -0.73656    -0.71911    -0.71812
    -0.71106    -0.70529    -0.69412    -0.69327    -0.69009    -0.68615
    -0.68086    -0.67968    -0.67706    -0.67498    -0.67211    -0.67079
    -0.66913    -0.66672    -0.66633    -0.66603    -0.65711    -0.65660
    -0.65418    -0.65140    -0.64646    -0.64525    -0.63509    -0.62478
    -0.61826    -0.61610    -0.60669    -0.60143    -0.59588    -0.59139
    -0.58855    -0.58568    -0.58413    -0.58009    -0.57611    -0.57346
    -0.56741    -0.56492    -0.55982    -0.55593    -0.55256    -0.55210
    -0.54703    -0.54583    -0.54017    -0.53467    -0.52909    -0.52860
    -0.52579    -0.52233    -0.52002    -0.51766    -0.51704    -0.51556
    -0.51324    -0.51288    -0.51033    -0.50639    -0.50578    -0.50440
    -0.50224    -0.50151    -0.50049    -0.50002    -0.49689    -0.49537
    -0.49439    -0.49239    -0.49108    -0.48900    -0.48771    -0.48485
    -0.48326    -0.48158    -0.47997    -0.47705    -0.47666    -0.47645
    -0.47429    -0.47286    -0.47106    -0.47022    -0.46282    -0.46275
    -0.45960    -0.45567    -0.45515    -0.45289    -0.45181    -0.44702
    -0.44480    -0.44221    -0.44169    -0.43933    -0.43607    -0.43328
    -0.43129    -0.42747    -0.42611    -0.42284    -0.42077    -0.42000
    -0.41803    -0.41203    -0.40847    -0.40705    -0.40616    -0.40304
    -0.40168    -0.40021    -0.39771    -0.39747    -0.39250    -0.39016
    -0.38947    -0.38845    -0.38537    -0.38488    -0.38322    -0.38256
    -0.37431    -0.37358    -0.36933    -0.36775    -0.36328    -0.36072
    -0.35919    -0.35416    -0.35152    -0.35082    -0.34983    -0.34862
    -0.34589    -0.33861    -0.33431    -0.33215    -0.33080    -0.32601
    -0.31586    -0.31509    -0.31114    -0.30739    -0.30515    -0.30336
    -0.30011    -0.29935    -0.29826    -0.29726    -0.29534    -0.29180
    -0.29125    -0.28952    -0.28891    -0.28305    -0.28056    -0.27626
    -0.27299    -0.25884    -0.02443    -0.02155    -0.00937     0.00249
     0.00538     0.00751     0.00947     0.01347     0.01487     0.02110
 
  Peak memory usage:   1020 Mb
  
  end of program scf
   
 Time(scf)  user:    23640.5  user+sys:    23640.5  wallclock:    25133.2
  
  start of program ch
  
  gridpoints used for charge fit        16131
    out of a possible maximum of        18665
  
   Electrostatic potential fitting constrained to reproduce
     total charge:                yes
     dipole moment:               no 
     traceless quadrupole moment: no 
     traceless octapole moment:   no 
  
  Atomic charges from electrostatic potential: 
   
 Atom       C1           C2           C3           C4           C5      
 Charge   -0.07434     -0.06157     -0.21420      0.24349      0.09034
   
 Atom       C6           C7           C8           C9           C10     
 Charge   -0.26967     -0.35974     -0.06435      0.08106     -0.10018
   
 Atom       C11          O12          Si13         C14          C15     
 Charge    0.01289     -0.29033      0.13433      0.02937      0.02658
   
 Atom       C16          C17          C18          C19          C20     
 Charge    0.29651     -0.14571     -0.49836     -0.25911      0.21421
   
 Atom       Si21         O22          C23          C24          P25     
 Charge   -0.15696     -0.28358     -0.16085     -0.09968      1.08213
   
 Atom       O26          O27          C28          C29          C30     
 Charge   -0.61653     -0.57269     -0.02399     -0.01921     -0.02075
   
 Atom       C31          C32          C33          C34          C35     
 Charge    0.02400      0.23580      0.19027     -0.06224      0.01549
   
 Atom       C36          C37          C38          C39          C40     
 Charge   -0.08784     -0.09541     -0.20821      0.03578     -0.01747
   
 Atom       C41          C42          C43          C44          C45     
 Charge   -0.17972     -0.10841     -0.19919     -0.15134     -0.23707
   
 Atom       C46          C47          C48          C49          C50     
 Charge   -0.21554     -0.06241     -0.22349     -0.16164     -0.11054
   
 Atom       C51          C52          C53          C54          C55     
 Charge   -0.15606     -0.12534     -0.10063     -0.16322     -0.20454
   
 Atom       C56          C57          C58          C59          C60     
 Charge   -0.11704     -0.11504     -0.19105     -0.14154     -0.14440
   
 Atom       C61          C62          C63          C64          C65     
 Charge   -0.15728     -0.14977     -0.10016     -0.11060     -0.22862
   
 Atom       C66          C67          C68          C69          C70     
 Charge    0.21630     -0.14814     -0.13012     -0.16106     -0.17305
   
 Atom       N71          S72          O73          O74          C75     
 Charge   -0.24038      0.68832     -0.44884     -0.44968      0.57126
   
 Atom       C76          C77          C78          C79          N80     
 Charge   -0.45951      0.26517     -0.51145      0.43533     -0.64977
   
 Atom       N81          C82          C83          C84          C85     
 Charge   -0.22895      0.28090     -0.26383     -0.10827      0.05213
   
 Atom       H86          H87          H88          H89          H90     
 Charge    0.11593      0.15510      0.15518      0.18216      0.12788
   
 Atom       H91          H92          H93          H94          H95     
 Charge    0.11879      0.21465      0.15351      0.14356      0.13120
   
 Atom       H96          H97          H98          H99          H100    
 Charge    0.21675      0.12220      0.08812      0.10544      0.08032
   
 Atom       H101         H102         H103         H104         H105    
 Charge    0.16633     -0.01337      0.08033      0.14764      0.11902
   
 Atom       H106         H107         H108         H109         H110    
 Charge    0.11445      0.11674      0.12219      0.14623      0.12171
   
 Atom       H111         H112         H113         H114         H115    
 Charge    0.14060      0.13446      0.12855      0.13679      0.13230
   
 Atom       H116         H117         H118         H119         H120    
 Charge    0.11799      0.11300      0.13563      0.12401      0.13438
   
 Atom       H121         H122         H123         H124         H125    
 Charge    0.14847      0.13999      0.13038      0.13765      0.13455
   
 Atom       H126         H127         H128         H129         H130    
 Charge    0.13006      0.13195      0.15259      0.13870      0.12663
   
 Atom       H131         H132         H133         H134         H135    
 Charge    0.13557      0.13942      0.15440      0.07391      0.18782
   
 Atom       H136         H137         H138         H139         H140    
 Charge    0.03811      0.32250      0.00905      0.16851      0.14247
   
 Atom       H141    
 Charge    0.09651
  
  sum of atomic charges:    -0.000000
   
 RMS Error   1.02E-03 hartrees
 
  Peak memory usage:    810 Mb
  
  end of program ch
   
 Time(ch)  user:       16.3  user+sys:       16.3  wallclock:       18.2
  
  start of program post
  
  Writing input files for PBF
  Peak memory usage:    758 Mb
  
  end of program post
   
 Time(post)  user:        0.8  user+sys:        0.8  wallclock:        1.0

  start of program pbf

Pbf Version 4.10

Molecular surface area:      800.26383   [A2]
Reaction field energy:       -17.30683   [kT]
  Peak memory usage: 719 Mb

  end of program pbf

 Time(pbf)  user:        7.9  user+sys:        8.0  wallclock:       14.8
  
  start of program solv
  
   number of surface charges from PBF   13244
   sum of surface charges     -0.00030
   
  nuclear repulsion energy.......   17370.278587499 hartrees
  Peak memory usage:    887 Mb
  
  end of program solv
   
 Time(solv)  user:       33.4  user+sys:       33.4  wallclock:       35.5
  
  start of program scf
  
 Energy computed with NOPS off.
  
       i  u  d  i  g                   
       t  p  i  c  r                                 RMS    maximum
       e  d  i  u  i                       energy  density   DIIS  
       r  t  s  t  d       total energy    change  change    error 
  
etot    1  N  N  1  U   -4710.09910882446           6.0E-05  2.0E-03
etot    2  N  Y  1  U   -4710.09993436638  8.3E-04  1.9E-05  1.5E-03
etot    3  N  Y  1  U   -4710.10021246592  2.8E-04  5.9E-06  5.5E-04
etot    4  N  Y  1  U   -4710.10026900812  5.7E-05  2.3E-06  1.0E-04
etot    5  N  N  1  U   -4710.10027395061  4.9E-06  0.0E+00  0.0E+00
  
  
 Energy components, in hartrees:
   (A)  Total zero-electron terms....   17372.56784562359
   (B)    Nuclear-nuclear............   17370.27858749917
   (C)    Nuclear-solvent............       2.28925812442
   (E)  Total one-electron terms.....  -41080.85547133708
   (F)    Electron-nuclear...........  -45753.90609097649
   (G)    Electron-solvent...........      -2.32779731791
   (H)    Kinetic....................    4675.37841695731
   (I)  Total two-electron terms.....   18998.18735176288
   (J)    Coulomb....................   19571.58996721903
   (K)    Exchange+Correlation.......    -573.40261545615
   (L)  Electronic energy............  -22082.66811957420  (E+I)
   (N)  Total quantum mech. energy...   -4710.10027395061  (A+L)
   (O)  Gas phase energy.............   -4710.06289998211
   (P)  Solution phase energy........   -4710.08100435387  (Q+R+S)
   (Q)    Total solute energy........   -4710.06173475712  (N-C-G)
   (R)    Total solvent energy.......      -0.01926959674  (C/2+G/2)
   (S)    Solute cavity energy.......       0.00000000000
   (U)  Reorganization energy........       0.00116522499  (Q-O)
   (V)  Solvation energy.............      -0.01810437175  (P-O)
  
 SCFE:  Solution phase energy: DFT(m06-2x)      -4710.08100435387 hartrees
        SCF iterations:   5
  
 
 HOMO energy:    -0.26008
 LUMO energy:    -0.02551
 
  Orbital energies (hartrees): 
   -90.14634   -78.22320   -67.01950   -67.00807   -19.70216   -19.69802
   -19.65563   -19.62601   -19.62220   -19.61182   -14.78005   -14.77457
   -14.77384   -10.63305   -10.62964   -10.61076   -10.60780   -10.60566
   -10.59506   -10.58845   -10.57849   -10.57748   -10.57568   -10.57556
   -10.57518   -10.57489   -10.57040   -10.56949   -10.56921   -10.56685
   -10.56656   -10.56635   -10.56244   -10.56207   -10.56170   -10.56070
   -10.56058   -10.55941   -10.55927   -10.55914   -10.55835   -10.55777
   -10.55739   -10.55730   -10.55712   -10.55697   -10.55652   -10.55480
   -10.55423   -10.55320   -10.55252   -10.55241   -10.55195   -10.55107
   -10.55003   -10.54977   -10.54950   -10.54881   -10.54876   -10.54831
   -10.54822   -10.54791   -10.54750   -10.54746   -10.54611   -10.54604
   -10.54575   -10.54561   -10.54525   -10.54513   -10.54500   -10.54379
   -10.54291   -10.54275   -10.54040   -10.53979   -10.53773   -10.53684
   -10.53388   -10.53385   -10.53087   -10.53079   -10.53056   -10.52979
   -10.52132    -8.45544    -7.00240    -6.37760    -6.37715    -6.37613
    -5.55040    -5.53885    -5.12057    -5.11979    -5.11878    -3.86025
    -3.85990    -3.85964    -3.84887    -3.84834    -3.84792    -1.24424
    -1.22026    -1.19623    -1.15013    -1.10880    -1.08622    -1.07588
    -1.06501    -1.01966    -0.98980    -0.97385    -0.95617    -0.95295
    -0.94861    -0.94345    -0.94215    -0.93749    -0.92909    -0.92775
    -0.91727    -0.90956    -0.89700    -0.88739    -0.87532    -0.86590
    -0.86010    -0.85135    -0.84771    -0.84655    -0.84138    -0.83852
    -0.83775    -0.83575    -0.83454    -0.83400    -0.83289    -0.83150
    -0.82969    -0.82864    -0.82500    -0.82328    -0.81877    -0.81554
    -0.80692    -0.77079    -0.75534    -0.74003    -0.72212    -0.71882
    -0.71122    -0.70497    -0.69442    -0.69276    -0.69167    -0.68397
    -0.68183    -0.67993    -0.67900    -0.67483    -0.67425    -0.67197
    -0.66943    -0.66856    -0.66741    -0.66593    -0.65959    -0.65885
    -0.65626    -0.65191    -0.65031    -0.64578    -0.63534    -0.62683
    -0.62122    -0.61534    -0.60670    -0.60320    -0.59596    -0.59000
    -0.58926    -0.58593    -0.58397    -0.58073    -0.57985    -0.57562
    -0.57022    -0.56546    -0.56456    -0.55709    -0.55484    -0.55283
    -0.55174    -0.54612    -0.54036    -0.53621    -0.52997    -0.52715
    -0.52628    -0.52293    -0.52020    -0.51900    -0.51703    -0.51523
    -0.51462    -0.51370    -0.51089    -0.50850    -0.50702    -0.50567
    -0.50424    -0.50128    -0.50064    -0.50030    -0.50011    -0.49731
    -0.49532    -0.49403    -0.49264    -0.48917    -0.48700    -0.48660
    -0.48496    -0.48312    -0.48073    -0.47936    -0.47855    -0.47793
    -0.47648    -0.47503    -0.47186    -0.47056    -0.46532    -0.46257
    -0.46126    -0.45614    -0.45491    -0.45316    -0.45248    -0.44939
    -0.44676    -0.44442    -0.44242    -0.44139    -0.43581    -0.43381
    -0.43196    -0.42884    -0.42618    -0.42431    -0.42337    -0.42193
    -0.41877    -0.41490    -0.41182    -0.40682    -0.40635    -0.40361
    -0.40149    -0.40068    -0.39953    -0.39711    -0.39691    -0.39181
    -0.39058    -0.38940    -0.38759    -0.38748    -0.38619    -0.38347
    -0.38162    -0.37680    -0.37421    -0.37087    -0.36840    -0.36403
    -0.36124    -0.35934    -0.35459    -0.35171    -0.35087    -0.34987
    -0.34860    -0.34180    -0.33695    -0.33467    -0.33407    -0.32680
    -0.32099    -0.31344    -0.30972    -0.30784    -0.30680    -0.30565
    -0.30335    -0.30041    -0.30013    -0.29923    -0.29757    -0.29385
    -0.29303    -0.29203    -0.29132    -0.28641    -0.28174    -0.28012
    -0.27761    -0.26008    -0.02551    -0.02157    -0.00948    -0.00156
     0.00417     0.00789     0.00995     0.01168     0.01316     0.02256
 
  Peak memory usage:   1020 Mb
  
  end of program scf
   
 Time(scf)  user:     9319.5  user+sys:     9319.5  wallclock:     9856.1
  
  start of program sole
  
    SCRF                   solvation energy
  iteration          Hartrees            kcal/mol
     0               0.0000000            0.0000
     1              -0.0181044          -11.3607
  
  solvation energy not yet converged... 
  
  Peak memory usage:    812 Mb
  
  end of program sole
   
 Time(sole)  user:        0.1  user+sys:        0.1  wallclock:        0.1
  
  start of program ch
  
  gridpoints used for charge fit        16131
    out of a possible maximum of        16131
  
   Electrostatic potential fitting constrained to reproduce
     total charge:                yes
     dipole moment:               no 
     traceless quadrupole moment: no 
     traceless octapole moment:   no 
  
  Atomic charges from electrostatic potential: 
   
 Atom       C1           C2           C3           C4           C5      
 Charge   -0.07729     -0.06167     -0.22164      0.24233      0.10023
   
 Atom       C6           C7           C8           C9           C10     
 Charge   -0.27623     -0.37039     -0.06971      0.05985     -0.11161
   
 Atom       C11          O12          Si13         C14          C15     
 Charge    0.03598     -0.27111      0.11428      0.03315      0.02567
   
 Atom       C16          C17          C18          C19          C20     
 Charge    0.29902     -0.14921     -0.51221     -0.26920      0.22774
   
 Atom       Si21         O22          C23          C24          P25     
 Charge   -0.18050     -0.27973     -0.16879     -0.10350      1.06032
   
 Atom       O26          O27          C28          C29          C30     
 Charge   -0.60726     -0.56580     -0.01806     -0.02440     -0.01074
   
 Atom       C31          C32          C33          C34          C35     
 Charge    0.03433      0.25458      0.19261     -0.07132      0.01580
   
 Atom       C36          C37          C38          C39          C40     
 Charge   -0.08870     -0.09288     -0.23120      0.02922     -0.02119
   
 Atom       C41          C42          C43          C44          C45     
 Charge   -0.19246     -0.11328     -0.21150     -0.15225     -0.24115
   
 Atom       C46          C47          C48          C49          C50     
 Charge   -0.22073     -0.07286     -0.22523     -0.17032     -0.11656
   
 Atom       C51          C52          C53          C54          C55     
 Charge   -0.16751     -0.12051     -0.11365     -0.16826     -0.21275
   
 Atom       C56          C57          C58          C59          C60     
 Charge   -0.12561     -0.11898     -0.19652     -0.15067     -0.15062
   
 Atom       C61          C62          C63          C64          C65     
 Charge   -0.16534     -0.15620     -0.10861     -0.11937     -0.22870
   
 Atom       C66          C67          C68          C69          C70     
 Charge    0.21021     -0.14114     -0.13618     -0.16597     -0.17887
   
 Atom       N71          S72          O73          O74          C75     
 Charge   -0.23331      0.69401     -0.47743     -0.45839      0.57894
   
 Atom       C76          C77          C78          C79          N80     
 Charge   -0.46533      0.26693     -0.50912      0.43902     -0.68149
   
 Atom       N81          C82          C83          C84          C85     
 Charge   -0.21239      0.27877     -0.27099     -0.11121      0.03295
   
 Atom       H86          H87          H88          H89          H90     
 Charge    0.12022      0.16313      0.16196      0.18971      0.13621
   
 Atom       H91          H92          H93          H94          H95     
 Charge    0.12180      0.22001      0.16075      0.15270      0.13943
   
 Atom       H96          H97          H98          H99          H100    
 Charge    0.21818      0.12272      0.08951      0.10877      0.08029
   
 Atom       H101         H102         H103         H104         H105    
 Charge    0.17559     -0.00926      0.08215      0.15270      0.12132
   
 Atom       H106         H107         H108         H109         H110    
 Charge    0.11773      0.11997      0.12211      0.15271      0.13142
   
 Atom       H111         H112         H113         H114         H115    
 Charge    0.14757      0.14267      0.13659      0.14556      0.13847
   
 Atom       H116         H117         H118         H119         H120    
 Charge    0.12484      0.11680      0.14394      0.13181      0.14040
   
 Atom       H121         H122         H123         H124         H125    
 Charge    0.15277      0.14391      0.13695      0.14599      0.14245
   
 Atom       H126         H127         H128         H129         H130    
 Charge    0.13834      0.13959      0.15528      0.13983      0.13230
   
 Atom       H131         H132         H133         H134         H135    
 Charge    0.14234      0.14557      0.16084      0.08098      0.19728
   
 Atom       H136         H137         H138         H139         H140    
 Charge    0.04764      0.31349      0.01602      0.17964      0.15085
   
 Atom       H141    
 Charge    0.10728
  
  sum of atomic charges:     0.000000
   
 RMS Error   1.03E-03 hartrees
 
  Peak memory usage:    811 Mb
  
  end of program ch
   
 Time(ch)  user:       16.4  user+sys:       16.4  wallclock:       19.5
  
  start of program post
  
  Writing input files for PBF
  Peak memory usage:    757 Mb
  
  end of program post
   
 Time(post)  user:        0.8  user+sys:        0.8  wallclock:        2.4

  start of program pbf

Pbf Version 4.10

Molecular surface area:      800.26383   [A2]
Reaction field energy:       -20.02839   [kT]
  Peak memory usage: 719 Mb

  end of program pbf

 Time(pbf)  user:        8.7  user+sys:        8.7  wallclock:        8.9
  
  start of program solv
  
   number of surface charges from PBF   13244
   sum of surface charges     -0.00032
   
  nuclear repulsion energy.......   17370.278587499 hartrees
  Peak memory usage:    887 Mb
  
  end of program solv
   
 Time(solv)  user:       33.4  user+sys:       33.4  wallclock:       34.2
  
  start of program scf
  
 Energy computed with NOPS off.
  
       i  u  d  i  g                   
       t  p  i  c  r                                 RMS    maximum
       e  d  i  u  i                       energy  density   DIIS  
       r  t  s  t  d       total energy    change  change    error 
  
etot    1  N  N  1  U   -4710.10315691310           7.2E-06  2.7E-04
etot    2  N  N  1  U   -4710.10316076620  3.9E-06  0.0E+00  0.0E+00
  
  
 Energy components, in hartrees:
   (A)  Total zero-electron terms....   17372.81032098763
   (B)    Nuclear-nuclear............   17370.27858749917
   (C)    Nuclear-solvent............       2.53173348846
   (E)  Total one-electron terms.....  -41081.33630821375
   (F)    Electron-nuclear...........  -45754.15147066366
   (G)    Electron-solvent...........      -2.57352049645
   (H)    Kinetic....................    4675.38868294636
   (I)  Total two-electron terms.....   18998.42282645993
   (J)    Coulomb....................   19571.82766335510
   (K)    Exchange+Correlation.......    -573.40483689518
   (L)  Electronic energy............  -22082.91348175383  (E+I)
   (N)  Total quantum mech. energy...   -4710.10316076620  (A+L)
   (O)  Gas phase energy.............   -4710.06289998211
   (P)  Solution phase energy........   -4710.08226726220  (Q+R+S)
   (Q)    Total solute energy........   -4710.06137375821  (N-C-G)
   (R)    Total solvent energy.......      -0.02089350400  (C/2+G/2)
   (S)    Solute cavity energy.......       0.00000000000
   (U)  Reorganization energy........       0.00152622391  (Q-O)
   (V)  Solvation energy.............      -0.01936728009  (P-O)
  
 SCFE:  Solution phase energy: DFT(m06-2x)      -4710.08226726220 hartrees
        SCF iterations:   2
  
 
 HOMO energy:    -0.28236
 LUMO energy:    -0.02559
 
  Orbital energies (hartrees): 
   -67.00572   -65.16589   -45.55554   -41.01070   -34.11048   -30.25996
   -27.40187   -22.48905   -16.94233   -16.59126   -16.36551   -16.02951
   -15.40178   -14.57437   -13.26659   -13.25163   -13.22651   -12.86684
   -12.66315   -12.51232   -12.42472   -11.72297   -11.71045   -11.55048
   -11.40515   -11.29746   -11.18724   -11.13122   -11.09706   -11.05437
   -11.03902   -11.01890   -10.97833   -10.96672   -10.95916   -10.85956
   -10.83203   -10.82892   -10.79822   -10.77634   -10.73503   -10.72258
   -10.71324   -10.71183   -10.71128   -10.68450   -10.66905   -10.66856
   -10.66319   -10.64795   -10.64670   -10.63248   -10.61344   -10.60350
   -10.59332   -10.59021   -10.58317   -10.57247   -10.57223   -10.56949
   -10.56932   -10.56602   -10.56545   -10.55252   -10.55208   -10.53196
   -10.51857   -10.51754   -10.51624   -10.51258   -10.49039   -10.49001
   -10.48615   -10.47855   -10.46344   -10.46143   -10.43546   -10.42905
   -10.40681   -10.39783   -10.38050   -10.36640   -10.33863   -10.29667
   -10.07108   -10.03871   -10.03802    -9.24309    -8.97843    -8.28055
    -6.80106    -6.76409    -6.55683    -6.46496    -5.33442    -4.51624
    -4.51308    -4.03827    -3.95329    -3.92886    -3.90020    -1.24838
    -1.03101    -1.01250    -1.00868    -0.99875    -0.99189    -0.98793
    -0.96691    -0.96623    -0.96589    -0.95819    -0.95777    -0.95595
    -0.91296    -0.91216    -0.90669    -0.90520    -0.89893    -0.88009
    -0.87521    -0.86463    -0.86162    -0.85873    -0.85129    -0.85118
    -0.84106    -0.82428    -0.82071    -0.80548    -0.80447    -0.79946
    -0.79911    -0.79358    -0.79320    -0.79248    -0.78629    -0.77407
    -0.76636    -0.75047    -0.74887    -0.74706    -0.73752    -0.73310
    -0.72812    -0.71546    -0.71265    -0.70908    -0.70761    -0.69840
    -0.69789    -0.69755    -0.69733    -0.69719    -0.68313    -0.68274
    -0.68225    -0.67617    -0.67534    -0.67468    -0.67376    -0.67215
    -0.66840    -0.66518    -0.65967    -0.65919    -0.65771    -0.65431
    -0.64719    -0.64374    -0.64344    -0.64283    -0.63753    -0.63644
    -0.63345    -0.62586    -0.62332    -0.62327    -0.61937    -0.60649
    -0.60072    -0.60034    -0.59721    -0.59432    -0.58081    -0.58080
    -0.58078    -0.57013    -0.56841    -0.56806    -0.56638    -0.55956
    -0.55861    -0.55790    -0.55592    -0.55570    -0.55145    -0.54912
    -0.54889    -0.54853    -0.54722    -0.54338    -0.54260    -0.53793
    -0.53746    -0.53189    -0.53044    -0.52032    -0.51939    -0.51601
    -0.51275    -0.51107    -0.51077    -0.50995    -0.50895    -0.50673
    -0.50512    -0.50506    -0.50330    -0.50259    -0.50218    -0.49962
    -0.49920    -0.49832    -0.49720    -0.49507    -0.49459    -0.49245
    -0.49032    -0.48985    -0.48972    -0.48749    -0.48604    -0.48295
    -0.48044    -0.48003    -0.47998    -0.47783    -0.47753    -0.47720
    -0.47179    -0.46620    -0.46449    -0.46436    -0.46357    -0.46349
    -0.45885    -0.45833    -0.45338    -0.45315    -0.45178    -0.45086
    -0.45037    -0.44760    -0.44712    -0.44708    -0.44651    -0.44574
    -0.44507    -0.44167    -0.44125    -0.44044    -0.44029    -0.44019
    -0.43834    -0.43614    -0.43550    -0.43457    -0.43421    -0.43318
    -0.43171    -0.43146    -0.42643    -0.42240    -0.42212    -0.42034
    -0.40856    -0.40772    -0.40764    -0.40592    -0.40018    -0.40018
    -0.39456    -0.39328    -0.39191    -0.38930    -0.38790    -0.38091
    -0.37750    -0.37206    -0.36544    -0.35109    -0.34951    -0.34051
    -0.33443    -0.33196    -0.32645    -0.31886    -0.31647    -0.31639
    -0.31602    -0.31402    -0.31098    -0.30187    -0.30169    -0.29758
    -0.29604    -0.28236    -0.02559    -0.02125    -0.00945    -0.00156
     0.00408     0.00804     0.01015     0.01164     0.01312     0.02240
 
  Peak memory usage:   1020 Mb
  
  end of program scf
   
 Time(scf)  user:     2359.0  user+sys:     2359.0  wallclock:     2501.6
  
  start of program sole
  
    SCRF                   solvation energy
  iteration          Hartrees            kcal/mol
     0               0.0000000            0.0000
     1              -0.0181044          -11.3607
     2              -0.0193673          -12.1532
  
  solvation energy not yet converged... 
  
  Peak memory usage:    812 Mb
  
  end of program sole
   
 Time(sole)  user:        0.1  user+sys:        0.1  wallclock:        0.1
  
  start of program ch
  
  gridpoints used for charge fit        16131
    out of a possible maximum of        16131
  
   Electrostatic potential fitting constrained to reproduce
     total charge:                yes
     dipole moment:               no 
     traceless quadrupole moment: no 
     traceless octapole moment:   no 
  
  Atomic charges from electrostatic potential: 
   
 Atom       C1           C2           C3           C4           C5      
 Charge   -0.07817     -0.06018     -0.22158      0.24117      0.10115
   
 Atom       C6           C7           C8           C9           C10     
 Charge   -0.27629     -0.37087     -0.06959      0.05765     -0.11138
   
 Atom       C11          O12          Si13         C14          C15     
 Charge    0.03763     -0.26969      0.11183      0.03277      0.02548
   
 Atom       C16          C17          C18          C19          C20     
 Charge    0.29922     -0.14897     -0.51457     -0.27081      0.22876
   
 Atom       Si21         O22          C23          C24          P25     
 Charge   -0.18272     -0.27869     -0.16909     -0.10251      1.05820
   
 Atom       O26          O27          C28          C29          C30     
 Charge   -0.60594     -0.56538     -0.01846     -0.02549     -0.01032
   
 Atom       C31          C32          C33          C34          C35     
 Charge    0.03473      0.25579      0.19114     -0.07216      0.01490
   
 Atom       C36          C37          C38          C39          C40     
 Charge   -0.08859     -0.09322     -0.23275      0.02780     -0.02132
   
 Atom       C41          C42          C43          C44          C45     
 Charge   -0.19440     -0.11408     -0.21270     -0.15150     -0.24235
   
 Atom       C46          C47          C48          C49          C50     
 Charge   -0.22021     -0.07325     -0.22433     -0.17050     -0.11647
   
 Atom       C51          C52          C53          C54          C55     
 Charge   -0.16783     -0.11931     -0.11482     -0.16831     -0.21210
   
 Atom       C56          C57          C58          C59          C60     
 Charge   -0.12585     -0.11908     -0.19715     -0.15070     -0.15034
   
 Atom       C61          C62          C63          C64          C65     
 Charge   -0.16541     -0.15569     -0.10865     -0.11995     -0.22850
   
 Atom       C66          C67          C68          C69          C70     
 Charge    0.20708     -0.13941     -0.13580     -0.16478     -0.17957
   
 Atom       N71          S72          O73          O74          C75     
 Charge   -0.23210      0.69237     -0.48050     -0.45723      0.57502
   
 Atom       C76          C77          C78          C79          N80     
 Charge   -0.46412      0.26819     -0.50538      0.43830     -0.68588
   
 Atom       N81          C82          C83          C84          C85     
 Charge   -0.21219      0.27983     -0.27056     -0.11268      0.03147
   
 Atom       H86          H87          H88          H89          H90     
 Charge    0.12073      0.16356      0.16225      0.19047      0.13681
   
 Atom       H91          H92          H93          H94          H95     
 Charge    0.12186      0.22050      0.16120      0.15348      0.14004
   
 Atom       H96          H97          H98          H99          H100    
 Charge    0.21858      0.12285      0.08923      0.10885      0.08029
   
 Atom       H101         H102         H103         H104         H105    
 Charge    0.17608     -0.00823      0.08237      0.15268      0.12127
   
 Atom       H106         H107         H108         H109         H110    
 Charge    0.11782      0.12008      0.12183      0.15311      0.13228
   
 Atom       H111         H112         H113         H114         H115    
 Charge    0.14814      0.14319      0.13711      0.14613      0.13880
   
 Atom       H116         H117         H118         H119         H120    
 Charge    0.12530      0.11693      0.14470      0.13248      0.14056
   
 Atom       H121         H122         H123         H124         H125    
 Charge    0.15280      0.14371      0.13754      0.14666      0.14300
   
 Atom       H126         H127         H128         H129         H130    
 Charge    0.13884      0.14013      0.15491      0.13942      0.13248
   
 Atom       H131         H132         H133         H134         H135    
 Charge    0.14263      0.14585      0.16126      0.08171      0.19827
   
 Atom       H136         H137         H138         H139         H140    
 Charge    0.04893      0.31261      0.01691      0.18086      0.15197
   
 Atom       H141    
 Charge    0.10809
  
  sum of atomic charges:    -0.000000
   
 RMS Error   1.03E-03 hartrees
 
  Peak memory usage:    811 Mb
  
  end of program ch
   
 Time(ch)  user:       16.5  user+sys:       16.5  wallclock:       18.9
  
  start of program post
  
  Writing input files for PBF
  Peak memory usage:    757 Mb
  
  end of program post
   
 Time(post)  user:        0.8  user+sys:        0.8  wallclock:        1.0

  start of program pbf

Pbf Version 4.10

Molecular surface area:      800.26383   [A2]
Reaction field energy:       -20.42626   [kT]
  Peak memory usage: 719 Mb

  end of program pbf

 Time(pbf)  user:        8.6  user+sys:        8.7  wallclock:        8.9
  
  start of program solv
  
   number of surface charges from PBF   13244
   sum of surface charges     -0.00032
   
  nuclear repulsion energy.......   17370.278587499 hartrees
  Peak memory usage:    887 Mb
  
  end of program solv
   
 Time(solv)  user:       33.5  user+sys:       33.5  wallclock:       34.2
  
  start of program scf
  
 Energy computed with NOPS off.
  
       i  u  d  i  g                   
       t  p  i  c  r                                 RMS    maximum
       e  d  i  u  i                       energy  density   DIIS  
       r  t  s  t  d       total energy    change  change    error 
  
etot    1  N  N  1  U   -4710.10355356289           5.4E-06  2.1E-04
etot    2  N  N  1  U   -4710.10354229750 -1.1E-05  0.0E+00  0.0E+00
  
  
 Energy components, in hartrees:
   (A)  Total zero-electron terms....   17372.85253003032
   (B)    Nuclear-nuclear............   17370.27858749917
   (C)    Nuclear-solvent............       2.57394253115
   (E)  Total one-electron terms.....  -41081.19577618805
   (F)    Electron-nuclear...........  -45753.94851799821
   (G)    Electron-solvent...........      -2.61596634585
   (H)    Kinetic....................    4675.36870815601
   (I)  Total two-electron terms.....   18998.23970386024
   (J)    Coulomb....................   19571.64211786550
   (K)    Exchange+Correlation.......    -573.40241400526
   (L)  Electronic energy............  -22082.95607232782  (E+I)
   (N)  Total quantum mech. energy...   -4710.10354229750  (A+L)
   (O)  Gas phase energy.............   -4710.06289998211
   (P)  Solution phase energy........   -4710.08253039015  (Q+R+S)
   (Q)    Total solute energy........   -4710.06151848280  (N-C-G)
   (R)    Total solvent energy.......      -0.02101190735  (C/2+G/2)
   (S)    Solute cavity energy.......       0.00000000000
   (U)  Reorganization energy........       0.00138149931  (Q-O)
   (V)  Solvation energy.............      -0.01963040804  (P-O)
  
 SCFE:  Solution phase energy: DFT(m06-2x)      -4710.08253039015 hartrees
        SCF iterations:   2
  
 
 HOMO energy:    -0.26017
 LUMO energy:    -0.02560
 
  Orbital energies (hartrees): 
   -90.14856   -78.22348   -67.01989   -67.00912   -19.70209   -19.69837
   -19.65540   -19.62977   -19.62224   -19.61286   -14.78170   -14.77797
   -14.77545   -10.63313   -10.62972   -10.61337   -10.60729   -10.60725
   -10.59499   -10.58955   -10.57798   -10.57708   -10.57557   -10.57551
   -10.57435   -10.57415   -10.57010   -10.56908   -10.56769   -10.56690
   -10.56687   -10.56607   -10.56272   -10.56190   -10.56133   -10.56029
   -10.56016   -10.55901   -10.55882   -10.55827   -10.55804   -10.55789
   -10.55753   -10.55741   -10.55722   -10.55693   -10.55636   -10.55445
   -10.55392   -10.55338   -10.55264   -10.55230   -10.55200   -10.55132
   -10.55034   -10.55030   -10.54977   -10.54916   -10.54868   -10.54835
   -10.54830   -10.54827   -10.54818   -10.54744   -10.54664   -10.54614
   -10.54610   -10.54601   -10.54583   -10.54554   -10.54503   -10.54500
   -10.54406   -10.54243   -10.54103   -10.54047   -10.53913   -10.53753
   -10.53478   -10.53475   -10.53200   -10.53186   -10.53146   -10.53126
   -10.52263    -8.45762    -7.00269    -6.37978    -6.37935    -6.37832
    -5.55078    -5.53989    -5.12087    -5.12008    -5.11908    -3.86063
    -3.86028    -3.86003    -3.84991    -3.84939    -3.84896    -1.24442
    -1.22233    -1.19639    -1.15027    -1.11081    -1.08684    -1.07653
    -1.06656    -1.02115    -0.98966    -0.97382    -0.95580    -0.95356
    -0.94866    -0.94373    -0.94274    -0.93791    -0.92906    -0.92859
    -0.91726    -0.90940    -0.89708    -0.88800    -0.87582    -0.86638
    -0.85999    -0.85115    -0.84743    -0.84670    -0.84139    -0.83845
    -0.83781    -0.83617    -0.83463    -0.83430    -0.83350    -0.83134
    -0.82992    -0.82910    -0.82546    -0.82371    -0.81976    -0.81654
    -0.80697    -0.77168    -0.75548    -0.74077    -0.72247    -0.71892
    -0.71113    -0.70492    -0.69449    -0.69347    -0.69150    -0.68356
    -0.68207    -0.68046    -0.67895    -0.67509    -0.67463    -0.67250
    -0.66930    -0.66893    -0.66784    -0.66608    -0.66016    -0.65946
    -0.65644    -0.65238    -0.65118    -0.64610    -0.63536    -0.62748
    -0.62166    -0.61533    -0.60663    -0.60361    -0.59614    -0.59050
    -0.58893    -0.58594    -0.58401    -0.58120    -0.58015    -0.57592
    -0.57090    -0.56601    -0.56516    -0.55729    -0.55542    -0.55294
    -0.55241    -0.54607    -0.54051    -0.53650    -0.53044    -0.52719
    -0.52612    -0.52306    -0.52064    -0.51900    -0.51716    -0.51556
    -0.51504    -0.51348    -0.51108    -0.50952    -0.50752    -0.50565
    -0.50455    -0.50190    -0.50053    -0.50043    -0.50016    -0.49787
    -0.49580    -0.49367    -0.49297    -0.48905    -0.48720    -0.48703
    -0.48573    -0.48335    -0.48094    -0.47991    -0.47855    -0.47830
    -0.47673    -0.47550    -0.47204    -0.47085    -0.46604    -0.46289
    -0.46133    -0.45655    -0.45494    -0.45338    -0.45243    -0.44983
    -0.44691    -0.44496    -0.44261    -0.44166    -0.43586    -0.43391
    -0.43205    -0.42916    -0.42621    -0.42467    -0.42384    -0.42217
    -0.41895    -0.41521    -0.41263    -0.40795    -0.40626    -0.40322
    -0.40181    -0.40077    -0.39989    -0.39812    -0.39692    -0.39204
    -0.39098    -0.38932    -0.38822    -0.38795    -0.38688    -0.38361
    -0.38311    -0.37765    -0.37503    -0.37169    -0.36983    -0.36456
    -0.36237    -0.36000    -0.35496    -0.35179    -0.35129    -0.35005
    -0.34878    -0.34256    -0.33795    -0.33514    -0.33437    -0.32743
    -0.32191    -0.31315    -0.30957    -0.30793    -0.30750    -0.30574
    -0.30391    -0.30098    -0.30041    -0.29983    -0.29754    -0.29424
    -0.29367    -0.29243    -0.29167    -0.28693    -0.28241    -0.28035
    -0.27858    -0.26017    -0.02560    -0.02189    -0.00934    -0.00223
     0.00401     0.00777     0.00999     0.01147     0.01321     0.02192
 
  Peak memory usage:   1020 Mb
  
  end of program scf
   
 Time(scf)  user:     2363.4  user+sys:     2363.4  wallclock:     2498.1
  
  start of program sole
  
    SCRF                   solvation energy
  iteration          Hartrees            kcal/mol
     0               0.0000000            0.0000
     1              -0.0181044          -11.3607
     2              -0.0193673          -12.1532
     3              -0.0196304          -12.3183
  
  solvation energy not yet converged... 
  
  Peak memory usage:    812 Mb
  
  end of program sole
   
 Time(sole)  user:        0.2  user+sys:        0.2  wallclock:        0.2
  
  start of program ch
  
  gridpoints used for charge fit        16131
    out of a possible maximum of        16131
  
   Electrostatic potential fitting constrained to reproduce
     total charge:                yes
     dipole moment:               no 
     traceless quadrupole moment: no 
     traceless octapole moment:   no 
  
  Atomic charges from electrostatic potential: 
   
 Atom       C1           C2           C3           C4           C5      
 Charge   -0.07767     -0.06186     -0.22182      0.24207      0.10016
   
 Atom       C6           C7           C8           C9           C10     
 Charge   -0.27628     -0.37115     -0.07000      0.05868     -0.11267
   
 Atom       C11          O12          Si13         C14          C15     
 Charge    0.03801     -0.27001      0.11367      0.03323      0.02498
   
 Atom       C16          C17          C18          C19          C20     
 Charge    0.29912     -0.14954     -0.51243     -0.26948      0.22898
   
 Atom       Si21         O22          C23          C24          P25     
 Charge   -0.18200     -0.27989     -0.16918     -0.10396      1.05965
   
 Atom       O26          O27          C28          C29          C30     
 Charge   -0.60695     -0.56537     -0.01782     -0.02424     -0.01039
   
 Atom       C31          C32          C33          C34          C35     
 Charge    0.03662      0.25681      0.19378     -0.07170      0.01712
   
 Atom       C36          C37          C38          C39          C40     
 Charge   -0.08892     -0.09257     -0.23271      0.02992     -0.02274
   
 Atom       C41          C42          C43          C44          C45     
 Charge   -0.19276     -0.11357     -0.21256     -0.15266     -0.24091
   
 Atom       C46          C47          C48          C49          C50     
 Charge   -0.22161     -0.07308     -0.22636     -0.17091     -0.11703
   
 Atom       C51          C52          C53          C54          C55     
 Charge   -0.16843     -0.12034     -0.11457     -0.16912     -0.21364
   
 Atom       C56          C57          C58          C59          C60     
 Charge   -0.12634     -0.11921     -0.19665     -0.15173     -0.15131
   
 Atom       C61          C62          C63          C64          C65     
 Charge   -0.16600     -0.15682     -0.10948     -0.12048     -0.22735
   
 Atom       C66          C67          C68          C69          C70     
 Charge    0.20880     -0.13975     -0.13715     -0.16625     -0.17810
   
 Atom       N71          S72          O73          O74          C75     
 Charge   -0.23155      0.69401     -0.48026     -0.46004      0.58057
   
 Atom       C76          C77          C78          C79          N80     
 Charge   -0.46621      0.26594     -0.50963      0.43886     -0.68336
   
 Atom       N81          C82          C83          C84          C85     
 Charge   -0.20829      0.27770     -0.27230     -0.11136      0.03112
   
 Atom       H86          H87          H88          H89          H90     
 Charge    0.12033      0.16378      0.16236      0.19018      0.13701
   
 Atom       H91          H92          H93          H94          H95     
 Charge    0.12197      0.21993      0.16101      0.15361      0.14028
   
 Atom       H96          H97          H98          H99          H100    
 Charge    0.21813      0.12252      0.08898      0.10872      0.08013
   
 Atom       H101         H102         H103         H104         H105    
 Charge    0.17595     -0.00949      0.08244      0.15236      0.12103
   
 Atom       H106         H107         H108         H109         H110    
 Charge    0.11789      0.11999      0.12139      0.15318      0.13230
   
[...]
  
  end of program ch
   
 Time(ch)  user:       15.0  user+sys:       15.0  wallclock:       16.3
  
  start of program post
  
  Writing input files for PBF
  Peak memory usage:    757 Mb
  
  end of program post
   
 Time(post)  user:        0.7  user+sys:        0.7  wallclock:        0.8

  start of program pbf

Pbf Version 4.10

Molecular surface area:      800.26383   [A2]
Reaction field energy:       -20.50730   [kT]
  Peak memory usage: 719 Mb

  end of program pbf

 Time(pbf)  user:        6.8  user+sys:        6.9  wallclock:        6.9
  
  start of program solv
  
   number of surface charges from PBF   13244
   sum of surface charges     -0.00032
   
  nuclear repulsion energy.......   17370.278587499 hartrees
  Peak memory usage:    887 Mb
  
  end of program solv
   
 Time(solv)  user:       29.8  user+sys:       29.8  wallclock:       30.0
  
  start of program scf
  
 Energy computed with NOPS off.
  
       i  u  d  i  g                   
       t  p  i  c  r                                 RMS    maximum
       e  d  i  u  i                       energy  density   DIIS  
       r  t  s  t  d       total energy    change  change    error 
  
etot    1  N  N  1  U   -4710.10358594976           1.2E-05  4.5E-04
etot    2  N  Y  1  U   -4710.10349710116 -8.9E-05  8.1E-06  7.7E-04
etot    3  N  Y  1  U   -4710.10363615257  1.4E-04  3.3E-07  1.1E-05
etot    4  N  N  1  U   -4710.10363631812  1.7E-07  0.0E+00  0.0E+00
  
  
 Energy components, in hartrees:
   (A)  Total zero-electron terms....   17372.86255448274
   (B)    Nuclear-nuclear............   17370.27858749917
   (C)    Nuclear-solvent............       2.58396698357
   (E)  Total one-electron terms.....  -41081.32264785787
   (F)    Electron-nuclear...........  -45754.07451549896
   (G)    Electron-solvent...........      -2.62618779061
   (H)    Kinetic....................    4675.37805543170
   (I)  Total two-electron terms.....   18998.35645705702
   (J)    Coulomb....................   19571.76008157999
   (K)    Exchange+Correlation.......    -573.40362452297
   (L)  Electronic energy............  -22082.96619080085  (E+I)
   (N)  Total quantum mech. energy...   -4710.10363631812  (A+L)
   (O)  Gas phase energy.............   -4710.06289998211
   (P)  Solution phase energy........   -4710.08252591459  (Q+R+S)
   (Q)    Total solute energy........   -4710.06141551107  (N-C-G)
   (R)    Total solvent energy.......      -0.02111040352  (C/2+G/2)
   (S)    Solute cavity energy.......       0.00000000000
   (U)  Reorganization energy........       0.00148447104  (Q-O)
   (V)  Solvation energy.............      -0.01962593248  (P-O)
  
 SCFE:  Solution phase energy: DFT(m06-2x)      -4710.08252591459 hartrees
        SCF iterations:   4
  
 
 HOMO energy:    -0.26019
 LUMO energy:    -0.02561
 
  Orbital energies (hartrees): 
   -90.14740   -78.22340   -67.01931   -67.00843   -19.70253   -19.69804
   -19.65580   -19.62789   -19.62414   -19.61189   -14.77969   -14.77481
   -14.77454   -10.63339   -10.62961   -10.61119   -10.60781   -10.60602
   -10.59498   -10.58841   -10.57853   -10.57777   -10.57590   -10.57574
   -10.57504   -10.57498   -10.57028   -10.56930   -10.56898   -10.56707
   -10.56668   -10.56653   -10.56187   -10.56182   -10.56158   -10.56037
   -10.56013   -10.55914   -10.55909   -10.55875   -10.55834   -10.55746
   -10.55745   -10.55722   -10.55710   -10.55683   -10.55658   -10.55473
   -10.55416   -10.55315   -10.55260   -10.55246   -10.55190   -10.55089
   -10.55017   -10.55008   -10.54960   -10.54915   -10.54884   -10.54868
   -10.54857   -10.54826   -10.54782   -10.54757   -10.54650   -10.54644
   -10.54603   -10.54559   -10.54549   -10.54545   -10.54527   -10.54429
   -10.54326   -10.54323   -10.54038   -10.54031   -10.53855   -10.53692
   -10.53478   -10.53456   -10.53158   -10.53148   -10.53122   -10.53013
   -10.52197    -8.45653    -7.00260    -6.37869    -6.37826    -6.37722
    -5.55022    -5.53921    -5.12077    -5.11998    -5.11898    -3.86006
    -3.85971    -3.85946    -3.84923    -3.84871    -3.84828    -1.24441
    -1.22173    -1.19641    -1.15027    -1.11041    -1.08640    -1.07582
    -1.06533    -1.02034    -0.98984    -0.97388    -0.95579    -0.95332
    -0.94858    -0.94355    -0.94257    -0.93791    -0.92914    -0.92840
    -0.91729    -0.90973    -0.89706    -0.88752    -0.87548    -0.86607
    -0.86007    -0.85112    -0.84743    -0.84665    -0.84130    -0.83851
    -0.83770    -0.83603    -0.83451    -0.83424    -0.83333    -0.83138
    -0.82976    -0.82907    -0.82514    -0.82365    -0.81955    -0.81627
    -0.80697    -0.77127    -0.75545    -0.74039    -0.72229    -0.71890
    -0.71120    -0.70488    -0.69448    -0.69313    -0.69143    -0.68362
    -0.68199    -0.68026    -0.67889    -0.67494    -0.67449    -0.67234
    -0.66922    -0.66890    -0.66758    -0.66595    -0.66005    -0.65932
    -0.65644    -0.65206    -0.65095    -0.64581    -0.63533    -0.62715
    -0.62146    -0.61522    -0.60669    -0.60347    -0.59602    -0.59029
    -0.58894    -0.58596    -0.58397    -0.58108    -0.58006    -0.57591
    -0.57078    -0.56575    -0.56487    -0.55728    -0.55505    -0.55286
    -0.55232    -0.54605    -0.54044    -0.53640    -0.53020    -0.52714
    -0.52609    -0.52300    -0.52051    -0.51893    -0.51708    -0.51551
    -0.51484    -0.51345    -0.51103    -0.50930    -0.50743    -0.50557
    -0.50453    -0.50163    -0.50057    -0.50034    -0.50013    -0.49772
    -0.49575    -0.49366    -0.49290    -0.48912    -0.48707    -0.48676
    -0.48549    -0.48317    -0.48087    -0.47976    -0.47864    -0.47816
    -0.47665    -0.47537    -0.47201    -0.47059    -0.46585    -0.46275
    -0.46123    -0.45627    -0.45486    -0.45320    -0.45246    -0.44972
    -0.44692    -0.44477    -0.44253    -0.44158    -0.43577    -0.43387
    -0.43194    -0.42904    -0.42619    -0.42454    -0.42371    -0.42208
    -0.41892    -0.41520    -0.41240    -0.40766    -0.40629    -0.40324
    -0.40164    -0.40067    -0.39980    -0.39779    -0.39682    -0.39187
    -0.39085    -0.38934    -0.38804    -0.38786    -0.38661    -0.38357
    -0.38283    -0.37736    -0.37480    -0.37121    -0.36928    -0.36411
    -0.36203    -0.35973    -0.35474    -0.35167    -0.35110    -0.34989
    -0.34857    -0.34222    -0.33738    -0.33497    -0.33428    -0.32692
    -0.32137    -0.31313    -0.30946    -0.30781    -0.30713    -0.30564
    -0.30374    -0.30081    -0.30024    -0.29967    -0.29755    -0.29416
    -0.29339    -0.29235    -0.29148    -0.28681    -0.28225    -0.28033
    -0.27834    -0.26019    -0.02561    -0.02153    -0.00939    -0.00188
     0.00402     0.00793     0.01010     0.01155     0.01316     0.02214
 
  Peak memory usage:   1020 Mb
  
  end of program scf
   
 Time(scf)  user:     5966.3  user+sys:     5966.3  wallclock:     6041.2
  
  start of program sole
  
    SCRF                   solvation energy
  iteration          Hartrees            kcal/mol
     0               0.0000000            0.0000
     1              -0.0181044          -11.3607
     2              -0.0193673          -12.1532
     3              -0.0196304          -12.3183
     4              -0.0194084          -12.1790
     5              -0.0196259          -12.3155
  
  solvation energy not yet converged... 
  
  Peak memory usage:    812 Mb
  
  end of program sole
   
 Time(sole)  user:        0.1  user+sys:        0.1  wallclock:        0.1
  
  start of program ch
  
  gridpoints used for charge fit        16131
    out of a possible maximum of        16131
  
   Electrostatic potential fitting constrained to reproduce
     total charge:                yes
     dipole moment:               no 
     traceless quadrupole moment: no 
     traceless octapole moment:   no 
  
  Atomic charges from electrostatic potential: 
   
 Atom       C1           C2           C3           C4           C5      
 Charge   -0.07789     -0.06090     -0.22174      0.24170      0.10074
   
 Atom       C6           C7           C8           C9           C10     
 Charge   -0.27638     -0.37109     -0.06983      0.05812     -0.11173
   
 Atom       C11          O12          Si13         C14          C15     
 Charge    0.03781     -0.26997      0.11269      0.03295      0.02522
   
 Atom       C16          C17          C18          C19          C20     
 Charge    0.29931     -0.14912     -0.51390     -0.27042      0.22890
   
 Atom       Si21         O22          C23          C24          P25     
 Charge   -0.18256     -0.27925     -0.16921     -0.10307      1.05920
   
 Atom       O26          O27          C28          C29          C30     
 Charge   -0.60644     -0.56546     -0.01842     -0.02508     -0.01051
   
 Atom       C31          C32          C33          C34          C35     
 Charge    0.03558      0.25644      0.19222     -0.07174      0.01600
   
 Atom       C36          C37          C38          C39          C40     
 Charge   -0.08860     -0.09300     -0.23263      0.02878     -0.02186
   
 Atom       C41          C42          C43          C44          C45     
 Charge   -0.19389     -0.11389     -0.21282     -0.15195     -0.24187
   
 Atom       C46          C47          C48          C49          C50     
 Charge   -0.22090     -0.07294     -0.22543     -0.17073     -0.11668
   
 Atom       C51          C52          C53          C54          C55     
 Charge   -0.16809     -0.11980     -0.11460     -0.16877     -0.21271
   
 Atom       C56          C57          C58          C59          C60     
 Charge   -0.12607     -0.11910     -0.19693     -0.15125     -0.15061
   
 Atom       C61          C62          C63          C64          C65     
 Charge   -0.16564     -0.15618     -0.10892     -0.12034     -0.22784
   
 Atom       C66          C67          C68          C69          C70     
 Charge    0.20750     -0.13930     -0.13650     -0.16527     -0.17872
   
 Atom       N71          S72          O73          O74          C75     
 Charge   -0.23125      0.69287     -0.48079     -0.45817      0.57734
   
 Atom       C76          C77          C78          C79          N80     
 Charge   -0.46490      0.26762     -0.50719      0.43883     -0.68566
   
 Atom       N81          C82          C83          C84          C85     
 Charge   -0.21052      0.27954     -0.27139     -0.11204      0.03049
   
 Atom       H86          H87          H88          H89          H90     
 Charge    0.12054      0.16373      0.16233      0.19031      0.13698
   
 Atom       H91          H92          H93          H94          H95     
 Charge    0.12188      0.22022      0.16112      0.15363      0.14022
   
 Atom       H96          H97          H98          H99          H100    
 Charge    0.21804      0.12267      0.08901      0.10875      0.08015
   
 Atom       H101         H102         H103         H104         H105    
 Charge    0.17602     -0.00887      0.08241      0.15252      0.12114
   
 Atom       H106         H107         H108         H109         H110    
 Charge    0.11782      0.12000      0.12154      0.15315      0.13235
   
 Atom       H111         H112         H113         H114         H115    
 Charge    0.14841      0.14329      0.13720      0.14618      0.13894
   
 Atom       H116         H117         H118         H119         H120    
 Charge    0.12522      0.11695      0.14486      0.13259      0.14053
   
 Atom       H121         H122         H123         H124         H125    
 Charge    0.15269      0.14390      0.13751      0.14678      0.14316
   
 Atom       H126         H127         H128         H129         H130    
 Charge    0.13890      0.14023      0.15461      0.13938      0.13266
   
 Atom       H131         H132         H133         H134         H135    
 Charge    0.14285      0.14565      0.16118      0.08185      0.19884
   
 Atom       H136         H137         H138         H139         H140    
 Charge    0.04888      0.31224      0.01623      0.18109      0.15172
   
 Atom       H141    
 Charge    0.10839
  
  sum of atomic charges:    -0.000000
   
 RMS Error   1.03E-03 hartrees
 
  Peak memory usage:    811 Mb
  
  end of program ch
   
 Time(ch)  user:       14.7  user+sys:       14.7  wallclock:       16.0
  
  start of program post
  
  Writing input files for PBF
  Peak memory usage:    757 Mb
  
  end of program post
   
 Time(post)  user:        0.6  user+sys:        0.6  wallclock:        0.9

  start of program pbf

Pbf Version 4.10

Molecular surface area:      800.26383   [A2]
Reaction field energy:       -20.39602   [kT]
  Peak memory usage: 719 Mb

  end of program pbf

 Time(pbf)  user:        6.9  user+sys:        7.0  wallclock:        7.0
  
  start of program solv
  
   number of surface charges from PBF   13244
   sum of surface charges     -0.00032
   
  nuclear repulsion energy.......   17370.278587499 hartrees
  Peak memory usage:    887 Mb
  
  end of program solv
   
 Time(solv)  user:       30.0  user+sys:       30.0  wallclock:       30.8
  
  start of program scf
  
 Energy computed with NOPS off.
  
       i  u  d  i  g                   
       t  p  i  c  r                                 RMS    maximum
       e  d  i  u  i                       energy  density   DIIS  
       r  t  s  t  d       total energy    change  change    error 
  
etot    1  N  N  1  U   -4710.10353562237           7.9E-07  3.3E-05
etot    2  N  N  1  U   -4710.10353569314  7.1E-08  0.0E+00  0.0E+00
  
  
 Energy components, in hartrees:
   (A)  Total zero-electron terms....   17372.84826984118
   (B)    Nuclear-nuclear............   17370.27858749917
   (C)    Nuclear-solvent............       2.56968234201
   (E)  Total one-electron terms.....  -41081.29359631825
   (F)    Electron-nuclear...........  -45754.05947666165
   (G)    Electron-solvent...........      -2.61177218656
   (H)    Kinetic....................    4675.37765252996
   (I)  Total two-electron terms.....   18998.34179078394
   (J)    Coulomb....................   19571.74533755765
   (K)    Exchange+Correlation.......    -573.40354677371
   (L)  Electronic energy............  -22082.95180553432  (E+I)
   (N)  Total quantum mech. energy...   -4710.10353569314  (A+L)
   (O)  Gas phase energy.............   -4710.06289998211
   (P)  Solution phase energy........   -4710.08249077086  (Q+R+S)
   (Q)    Total solute energy........   -4710.06144584859  (N-C-G)
   (R)    Total solvent energy.......      -0.02104492227  (C/2+G/2)
   (S)    Solute cavity energy.......       0.00000000000
   (U)  Reorganization energy........       0.00145413352  (Q-O)
   (V)  Solvation energy.............      -0.01959078875  (P-O)
  
 SCFE:  Solution phase energy: DFT(m06-2x)      -4710.08249077086 hartrees
        SCF iterations:   2
  
 
 HOMO energy:    -0.26020
 LUMO energy:    -0.02561
 
  Orbital energies (hartrees): 
   -90.14743   -78.22339   -67.01932   -67.00847   -19.70250   -19.69802
   -19.65574   -19.62812   -19.62396   -19.61188   -14.77971   -14.77515
   -14.77450   -10.63338   -10.62959   -10.61136   -10.60780   -10.60606
   -10.59499   -10.58846   -10.57859   -10.57784   -10.57595   -10.57553
   -10.57511   -10.57505   -10.57026   -10.56910   -10.56894   -10.56700
   -10.56666   -10.56654   -10.56185   -10.56184   -10.56162   -10.56035
   -10.56015   -10.55917   -10.55906   -10.55872   -10.55834   -10.55745
   -10.55742   -10.55718   -10.55710   -10.55689   -10.55653   -10.55466
   -10.55413   -10.55317   -10.55259   -10.55245   -10.55189   -10.55086
   -10.55017   -10.55009   -10.54960   -10.54910   -10.54884   -10.54870
   -10.54852   -10.54823   -10.54784   -10.54756   -10.54644   -10.54639
   -10.54602   -10.54555   -10.54550   -10.54540   -10.54531   -10.54435
   -10.54334   -10.54316   -10.54041   -10.54033   -10.53861   -10.53692
   -10.53474   -10.53453   -10.53154   -10.53150   -10.53130   -10.53022
   -10.52199    -8.45656    -7.00258    -6.37871    -6.37828    -6.37725
    -5.55023    -5.53925    -5.12076    -5.11997    -5.11897    -3.86008
    -3.85973    -3.85947    -3.84927    -3.84875    -3.84832    -1.24440
    -1.22174    -1.19640    -1.15024    -1.11041    -1.08638    -1.07583
    -1.06543    -1.02034    -0.98985    -0.97388    -0.95579    -0.95332
    -0.94858    -0.94355    -0.94258    -0.93791    -0.92913    -0.92840
    -0.91728    -0.90967    -0.89707    -0.88753    -0.87549    -0.86608
    -0.86007    -0.85111    -0.84743    -0.84665    -0.84130    -0.83851
    -0.83770    -0.83603    -0.83451    -0.83424    -0.83334    -0.83138
    -0.82975    -0.82907    -0.82515    -0.82366    -0.81954    -0.81627
    -0.80697    -0.77127    -0.75545    -0.74039    -0.72228    -0.71890
    -0.71119    -0.70488    -0.69448    -0.69313    -0.69143    -0.68362
    -0.68198    -0.68026    -0.67889    -0.67495    -0.67449    -0.67235
    -0.66922    -0.66890    -0.66759    -0.66595    -0.66005    -0.65931
    -0.65644    -0.65206    -0.65096    -0.64582    -0.63532    -0.62715
    -0.62145    -0.61522    -0.60669    -0.60347    -0.59602    -0.59029
    -0.58894    -0.58596    -0.58396    -0.58107    -0.58006    -0.57591
    -0.57077    -0.56576    -0.56487    -0.55726    -0.55505    -0.55286
    -0.55230    -0.54605    -0.54044    -0.53640    -0.53020    -0.52714
    -0.52609    -0.52299    -0.52049    -0.51893    -0.51708    -0.51551
    -0.51484    -0.51345    -0.51102    -0.50930    -0.50743    -0.50557
    -0.50452    -0.50163    -0.50056    -0.50034    -0.50013    -0.49772
    -0.49575    -0.49367    -0.49290    -0.48912    -0.48707    -0.48677
    -0.48549    -0.48317    -0.48086    -0.47977    -0.47861    -0.47816
    -0.47664    -0.47538    -0.47201    -0.47060    -0.46584    -0.46275
    -0.46122    -0.45628    -0.45486    -0.45320    -0.45246    -0.44972
    -0.44689    -0.44477    -0.44253    -0.44157    -0.43577    -0.43387
    -0.43194    -0.42903    -0.42619    -0.42453    -0.42371    -0.42207
    -0.41891    -0.41520    -0.41240    -0.40766    -0.40629    -0.40324
    -0.40164    -0.40067    -0.39979    -0.39780    -0.39682    -0.39187
    -0.39085    -0.38933    -0.38805    -0.38786    -0.38661    -0.38357
    -0.38283    -0.37735    -0.37479    -0.37121    -0.36930    -0.36411
    -0.36203    -0.35973    -0.35476    -0.35168    -0.35109    -0.34989
    -0.34857    -0.34224    -0.33740    -0.33498    -0.33429    -0.32695
    -0.32139    -0.31313    -0.30947    -0.30781    -0.30713    -0.30564
    -0.30375    -0.30081    -0.30023    -0.29967    -0.29754    -0.29416
    -0.29339    -0.29234    -0.29148    -0.28681    -0.28224    -0.28033
    -0.27834    -0.26020    -0.02561    -0.02154    -0.00938    -0.00188
     0.00403     0.00793     0.01010     0.01156     0.01316     0.02213
 
  Peak memory usage:   1020 Mb
  
  end of program scf
   
 Time(scf)  user:     1994.1  user+sys:     1994.1  wallclock:     2022.3
  
  start of program sole
  
    SCRF                   solvation energy
  iteration          Hartrees            kcal/mol
     0               0.0000000            0.0000
     1              -0.0181044          -11.3607
     2              -0.0193673          -12.1532
     3              -0.0196304          -12.3183
     4              -0.0194084          -12.1790
     5              -0.0196259          -12.3155
     6              -0.0195908          -12.2934
  
  stopping: solvation energy converged
  
  iterations:   6    sfinal:    -12.2934 kcal/mol
  
  Peak memory usage:    812 Mb
  
  end of program sole
   
 Time(sole)  user:        0.1  user+sys:        0.1  wallclock:        0.1
  
  start of program post
  
  Writing input files for PBF
  Peak memory usage:    757 Mb
  
  end of program post
   
 Time(post)  user:        0.7  user+sys:        0.7  wallclock:        0.9

 Total cpu seconds     user:   49331.600   user+sys:   49331.600
  
 Total elapsed time:    52094 seconds

Job Toru-SiPh3-Type-II-E-1-scan-unrestrained-IRC-min-disp-optimise-SPE completed on tethys at Sat Mar 11 04:39:07 2017
