Job Toru-SiPh3-Type-I-E-8-chkp-scan-unrestrained-208-SPE started on tethys at Thu Mar  9 17:48:41 2017
jobid: tethys-0-58c19576

  +--------------------------------------------------------------------+
  |  Jaguar version 9.5, release  11                                   |
  |                                                                    |
  |  Copyright Schrodinger, Inc.                                       |
  |  All Rights Reserved.                                              |
  |                                                                    |
  |  The following have contributed to Jaguar (listed alphabetically): |
  |  Mike Beachy, Art Bochevarov, Dale Braden, Yixiang Cao,            |
  |  Chris Cortis, Rich Friesner, Bill Goddard, Hod Greeley,           |
  |  Tom Hughes, Leif Jacobson, Jean-Marc Langlois,                    |
  |  Daniel Mainz, Rob Murphy, Dean Philipp, Tom Pollard,              |
  |  Murco Ringnalda, Mark Watson, Haoyu Yu.                           |
  |                                                                    |
  |  Use of this program should be acknowledged in publications as:    |
  |                                                                    |
  |  Jaguar, version 9.5, Schrodinger, Inc., New York, NY, 2017.       |
  |                                                                    |
  |  A. D. Bochevarov, E. Harder, T. F. Hughes, J. R. Greenwood,       |
  |  D. A. Braden, D. M. Philipp, D. Rinaldo, M. D. Halls,             |
  |  J. Zhang, R. A. Friesner, "Jaguar: A High-Performance Quantum     |
  |  Chemistry Software Program with Strengths in Life and Materials   |
  |  Sciences", Int. J. Quantum Chem., 2013, 113(18), 2110-2142.       |
  +--------------------------------------------------------------------+
  
  start of program pre
  
  Job name: Toru-SiPh3-Type-I-E-8-chkp-scan-unrestrained-208-SPE
  Executables used: /usr/local/shared/schrodinger/current/jaguar-v9.5/bin/Linux-x86_64
  Temporary files : /scratch/ab2144/Toru-SiPh3-Type-I-E-8-chkp-scan-unrestrained-208-SPE
  Maestro file (input):  Toru-SiPh3-Type-I-E-8-chkp-scan-unrestrained-208-SPE.mae
  Maestro file (output): Toru-SiPh3-Type-I-E-8-chkp-scan-unrestrained-208-SPE.01.mae
  
  basis set:             6-31g**                         
  net molecular charge:    0
  multiplicity:            1
  
  keygrid settings 
    wispc.....   7.500E-01
    ldens.....   0
    denspc....   7.500E-01
  
   grid     daf set  nls  grid set  Q type
  ------    -------  ---  --------  ------
  coarse       1      1       1        1
  medium       2      2       2        1
  fine         3      2       3        0
  ultrafine    4      2       4        1
  charge       0      1      -1        1
  gradient     5      2       4        1
  density      0      1       0        0
  DFT-fine     0      1     -13        0
  DFT-med.     0      1     -13        0
  DFT-grad     0      1     -13        0
  DFT-der2     0      1       0        0
  DFT-cphf     0      1       0        0
  LMP2-enrg    4      2       4        1
  LMP2-grad    5      2       2        1
  DFT-cphf2    0      1       0        0
  PBF-dens     0      1       0        0
  plotting     0      1       0        0
  Rel-grad     0      1     -17        0
  
  idftgrdm  100
  ndftgrdm   50    0    0
  idftgrdf  111
  ndftgrdf   85    0    0
  idftgrdg  111
  ndftgrdg   80    3    0
  idftgrdu  433
  ndftgrdu  105    0    0
  idftgrdd  433
  ndftgrdd  105    0    0
  idftgrdc  433
  ndftgrdc   26    0    0
  idftgrdp  433
  ndftgrdp   18    0    0
  
  number of basis functions....         1571
  
 Input geometry:
                                   angstroms
  atom               x                 y                 z
  C1            0.9440000000      5.3192000000     -0.5667000000 
  C2            1.7396000000      4.0611000000     -0.4905000000 
  C3            1.5088000000      6.4533000000     -0.9965000000 
  C4            3.0235000000      4.0764000000     -0.9068000000 
  C5            1.1357000000      2.7788000000     -0.0149000000 
  C6            3.6415000000      5.3390000000     -1.3754000000 
  C7            3.8140000000      2.8342000000     -0.9099000000 
  C8            2.9234000000      6.4659000000     -1.4123000000 
  C9            1.8243000000      1.6178000000     -0.1521000000 
  C10          -0.2431000000      2.7635000000      0.5300000000 
  C11           3.2649000000      1.6661000000     -0.5429000000 
  O12           1.2696000000      0.4200000000      0.2430000000 
  Si13          4.3231000000      0.1257000000     -0.5408000000 
  C14          -0.6074000000      3.4551000000      1.6333000000 
  C15          -1.2603000000      1.9941000000     -0.2250000000 
  C16          -2.0430000000      3.5323000000      2.0053000000 
  C17           0.3656000000      4.1605000000      2.5035000000 
  C18          -2.9689000000      2.9240000000      1.2519000000 
  C19          -2.4242000000      4.3180000000      3.1952000000 
  C20          -2.5688000000      2.1227000000      0.0731000000 
  Si21         -3.9211000000      1.2863000000     -0.9022000000 
  O22          -0.8337000000      1.1489000000     -1.2149000000 
  C23          -0.0537000000      4.8491000000      3.5717000000 
  C24          -1.4877000000      4.9350000000      3.9243000000 
  P25          -0.0247000000     -0.1514000000     -0.6173000000 
  O26           0.4097000000     -0.9737000000     -1.8021000000 
  O27          -0.9148000000     -0.8283000000      0.4210000000 
  C28           3.6336000000     -1.0246000000     -1.8260000000 
  C29           6.0823000000      0.5345000000     -0.9913000000 
  C30           4.4354000000     -0.6102000000      1.1641000000 
  C31          -4.6139000000     -0.1289000000      0.0954000000 
  C32          -5.2278000000      2.5859000000     -1.1955000000 
  C33          -3.2817000000      0.6486000000     -2.5384000000 
  C34           3.5108000000     -2.3441000000     -1.6086000000 
  C35           3.2865000000     -0.4699000000     -3.1573000000 
  C36           6.8188000000      1.3045000000     -0.1720000000 
  C37           6.6975000000     -0.0106000000     -2.2266000000 
  C38           5.1853000000     -1.7054000000      1.3761000000 
  C39           3.8265000000      0.0868000000      2.3237000000 
  C40          -4.1104000000     -0.4442000000      1.3018000000 
  C41          -5.7333000000     -0.9317000000     -0.4556000000 
  C42          -4.8805000000      3.7827000000     -1.7012000000 
  C43          -6.6429000000      2.3493000000     -0.8119000000 
  C44          -2.8073000000      1.4945000000     -3.4699000000 
  C45          -3.2059000000     -0.8113000000     -2.7877000000 
  C46           3.0757000000     -3.2380000000     -2.7022000000 
  C47           2.7580000000     -2.7319000000     -3.8990000000 
  C48           2.8635000000     -1.2789000000     -4.1361000000 
  C49           8.2210000000      1.6238000000     -0.5104000000 
  C50           8.7676000000      1.1376000000     -1.6306000000 
  C51           7.9695000000      0.2785000000     -2.5285000000 
  C52           5.3447000000     -2.2483000000      2.7409000000 
  C53           4.7797000000     -1.6242000000      3.7803000000 
  C54           3.9975000000     -0.3915000000      3.5628000000 
  C55          -4.6821000000     -1.5650000000      2.0770000000 
  C56          -5.7032000000     -2.2728000000      1.5813000000 
  C57          -6.2563000000     -1.9386000000      0.2543000000 
  C58          -5.9014000000      4.8273000000     -1.9230000000 
  C59          -7.1781000000      4.5961000000     -1.5998000000 
  C60          -7.5648000000      3.2999000000     -1.0099000000 
  C61          -2.2272000000      0.9749000000     -4.7262000000 
  C62          -2.1587000000     -0.3438000000     -4.9389000000 
  C63          -2.6707000000     -1.2807000000     -3.9206000000 
  C64          -3.4735000000     -6.4830000000     -0.1224000000 
  C65          -2.2949000000     -6.0386000000      0.4673000000 
  C66          -1.9358000000     -4.6813000000      0.4201000000 
  C67          -2.7690000000     -3.7728000000     -0.2510000000 
  C68          -3.9390000000     -4.2289000000     -0.8588000000 
  C69          -4.2972000000     -5.5756000000     -0.7916000000 
  C70          -0.6945000000     -4.2728000000      1.1062000000 
  N71          -0.6017000000     -3.0263000000      1.6544000000 
  S72           0.6204000000     -2.7745000000      2.8266000000 
  O73           0.4834000000     -3.8538000000      3.8146000000 
  O74           1.9100000000     -2.5567000000      2.1699000000 
  C75          -0.0234000000     -1.2191000000      3.5222000000 
  C76          -1.3431000000     -1.1810000000      3.9708000000 
  C77          -1.7979000000      0.0315000000      4.4824000000 
  C78          -0.9171000000      1.1121000000      4.5371000000 
  C79           0.3899000000      0.9358000000      4.0827000000 
  N80           0.8348000000     -0.2187000000      3.5746000000 
  N81           0.2574000000     -3.5807000000     -1.4320000000 
  C82          -0.1694000000     -4.3906000000     -2.4003000000 
  C83           0.1231000000     -5.7337000000     -2.0658000000 
  C84           0.7627000000     -5.7016000000     -0.8391000000 
  C85           0.7787000000     -4.3472000000     -0.3835000000 
  H86          -0.1019000000      5.3324000000     -0.2918000000 
  H87           0.9256000000      7.3636000000     -1.0506000000 
  H88           4.6773000000      5.3536000000     -1.6914000000 
  H89           4.8447000000      2.8890000000     -1.2300000000 
  H90           3.3751000000      7.3874000000     -1.7562000000 
  H91           1.4278000000      4.1123000000      2.3008000000 
  H92          -4.0175000000      2.9965000000      1.5164000000 
  H93          -3.4647000000      4.3996000000      3.4860000000 
  H94           0.6712000000      5.3516000000      4.1992000000 
  H95          -1.7809000000      5.5060000000      4.7958000000 
  H96          -0.7844000000     -2.1123000000      1.0707000000 
  H97           3.7455000000     -2.7809000000     -0.6503000000 
  H98           3.3741000000      0.5932000000     -3.3438000000 
  H99           6.3958000000      1.7037000000      0.7418000000 
  H100          6.1306000000     -0.6476000000     -2.8913000000 
  H101          5.6996000000     -2.1937000000      0.5578000000 
  H102          3.2618000000      0.9983000000      2.1848000000 
  H103         -3.2853000000      0.1087000000      1.7286000000 
  H104         -6.1330000000     -0.7053000000     -1.4362000000 
  H105         -3.8495000000      4.0146000000     -1.9292000000 
  H106         -6.9458000000      1.4206000000     -0.3541000000 
  H107         -2.8046000000      2.5611000000     -3.3072000000 
  H108         -3.5622000000     -1.5090000000     -2.0499000000 
  H109          3.0074000000     -4.3040000000     -2.5291000000 
  H110          2.4284000000     -3.3860000000     -4.6957000000 
  H111          2.6076000000     -0.8716000000     -5.1055000000 
  H112          8.8044000000      2.2514000000      0.1509000000 
  H113          9.7950000000      1.3697000000     -1.8797000000 
  H114          8.4178000000     -0.1195000000     -3.4298000000 
  H115          5.9279000000     -3.1463000000      2.8980000000 
  H116          4.9004000000     -2.0162000000      4.7818000000 
  H117          3.5637000000      0.1247000000      4.4094000000 
  H118         -4.2774000000     -1.8088000000      3.0497000000 
  H119         -6.1220000000     -3.0938000000      2.1485000000 
  H120         -7.0739000000     -2.5212000000     -0.1499000000 
  H121         -5.6120000000      5.7812000000     -2.3448000000 
  H122         -7.9272000000      5.3608000000     -1.7597000000 
  H123         -8.5949000000      3.1248000000     -0.7271000000 
  H124         -1.8474000000      1.6648000000     -5.4687000000 
  H125         -1.7265000000     -0.7262000000     -5.8545000000 
  H126         -2.6088000000     -2.3478000000     -4.0906000000 
  H127         -3.7472000000     -7.5319000000     -0.0624000000 
  H128         -1.6478000000     -6.7440000000      0.9815000000 
  H129         -2.5021000000     -2.7207000000     -0.2816000000 
  H130         -4.5807000000     -3.5350000000     -1.3899000000 
  H131         -5.2153000000     -5.9166000000     -1.2606000000 
  H132         -0.2533000000     -5.0494000000      1.7280000000 
  H133         -1.9780000000     -2.0559000000      3.9090000000 
  H134         -2.8210000000      0.1295000000      4.8316000000 
  H135         -1.2324000000      2.0717000000      4.9327000000 
  H136          1.1116000000      1.7477000000      4.1247000000 
  H137          0.2861000000     -2.5158000000     -1.5174000000 
  H138         -0.6488000000     -3.9913000000     -3.2839000000 
  H139         -0.1233000000     -6.5995000000     -2.6632000000 
  H140          1.1325000000     -6.5461000000     -0.2729000000 
  H141          1.5309000000     -3.8981000000      0.2547000000 
   
  principal moments of inertia:
        amu*angstrom^2:    16925.40997    21894.17762    26844.11942
                g*cm^2: 2.81053010E-36 3.63561328E-36 4.45757035E-36
   
  rotational constants:
               cm^(-1):      0.00099600      0.00076996      0.00062798
                   GHz:      0.02985919      0.02308280      0.01882643
   
  Molecular weight:    1177.32 amu
   
  Stoichiometry: Si2C72PN3H56SO6
[running at reduced cpu priority]
  Molecular Point Group: C1      
  Point Group used: C1
  
  nuclear repulsion energy.......   17588.009589313 hartrees
 
 Non-default options chosen:
   SCF calculation type: DFT(m06-2x)                 
   DFT=M06-2X
   Solvation energy will be computed using PBF
     -solute cavity energy will not be included
     -surface area terms will not be included
   Highest accuracy cutoffs used in SCF
   Solvent: other                                                           
   Internal dielectric constant:    1.000
   Continuum dielectric constant:   2.380
   Solvent probe molecule radius:   2.760
  
 Temporary integer options set:
     73=  2
  
  atom       vdw   vdw2    cov     mass  grid  daf  charge   basis
  C1        1.949  1.900  0.770   12.000    Y    Y      Y    6-31g**
  C2        1.949  1.900  0.770   12.000    Y    Y      Y    6-31g**
  C3        1.949  1.900  0.770   12.000    Y    Y      Y    6-31g**
  C4        1.949  1.900  0.770   12.000    Y    Y      Y    6-31g**
  C5        1.949  1.900  0.770   12.000    Y    Y      Y    6-31g**
  C6        1.949  1.900  0.770   12.000    Y    Y      Y    6-31g**
  C7        1.949  1.900  0.770   12.000    Y    Y      Y    6-31g**
  C8        1.949  1.900  0.770   12.000    Y    Y      Y    6-31g**
  C9        1.949  1.900  0.770   12.000    Y    Y      Y    6-31g**
  C10       1.949  1.900  0.770   12.000    Y    Y      Y    6-31g**
  C11       1.949  1.900  0.770   12.000    Y    Y      Y    6-31g**
  O12       1.702  1.600  0.730   15.995    Y    Y      Y    6-31g**
  Si13      2.217  2.147  1.110   27.977    Y    Y      Y    6-31g**
  C14       1.949  1.900  0.770   12.000    Y    Y      Y    6-31g**
  C15       1.949  1.900  0.770   12.000    Y    Y      Y    6-31g**
  C16       1.949  1.900  0.770   12.000    Y    Y      Y    6-31g**
  C17       1.949  1.900  0.770   12.000    Y    Y      Y    6-31g**
  C18       1.949  1.900  0.770   12.000    Y    Y      Y    6-31g**
  C19       1.949  1.900  0.770   12.000    Y    Y      Y    6-31g**
  C20       1.949  1.900  0.770   12.000    Y    Y      Y    6-31g**
  Si21      2.217  2.147  1.110   27.977    Y    Y      Y    6-31g**
  O22       1.702  1.600  0.730   15.995    Y    Y      Y    6-31g**
  C23       1.949  1.900  0.770   12.000    Y    Y      Y    6-31g**
  C24       1.949  1.900  0.770   12.000    Y    Y      Y    6-31g**
  P25       2.147  2.074  1.060   30.974    Y    Y      Y    6-31g**
  O26       1.702  1.600  0.730   15.995    Y    Y      Y    6-31g**
  O27       1.702  1.600  0.730   15.995    Y    Y      Y    6-31g**
  C28       1.949  1.900  0.770   12.000    Y    Y      Y    6-31g**
  C29       1.949  1.900  0.770   12.000    Y    Y      Y    6-31g**
  C30       1.949  1.900  0.770   12.000    Y    Y      Y    6-31g**
  C31       1.949  1.900  0.770   12.000    Y    Y      Y    6-31g**
  C32       1.949  1.900  0.770   12.000    Y    Y      Y    6-31g**
  C33       1.949  1.900  0.770   12.000    Y    Y      Y    6-31g**
  C34       1.949  1.900  0.770   12.000    Y    Y      Y    6-31g**
  C35       1.949  1.900  0.770   12.000    Y    Y      Y    6-31g**
  C36       1.949  1.900  0.770   12.000    Y    Y      Y    6-31g**
  C37       1.949  1.900  0.770   12.000    Y    Y      Y    6-31g**
  C38       1.949  1.900  0.770   12.000    Y    Y      Y    6-31g**
  C39       1.949  1.900  0.770   12.000    Y    Y      Y    6-31g**
  C40       1.949  1.900  0.770   12.000    Y    Y      Y    6-31g**
  C41       1.949  1.900  0.770   12.000    Y    Y      Y    6-31g**
  C42       1.949  1.900  0.770   12.000    Y    Y      Y    6-31g**
  C43       1.949  1.900  0.770   12.000    Y    Y      Y    6-31g**
  C44       1.949  1.900  0.770   12.000    Y    Y      Y    6-31g**
  C45       1.949  1.900  0.770   12.000    Y    Y      Y    6-31g**
  C46       1.949  1.900  0.770   12.000    Y    Y      Y    6-31g**
  C47       1.949  1.900  0.770   12.000    Y    Y      Y    6-31g**
  C48       1.949  1.900  0.770   12.000    Y    Y      Y    6-31g**
  C49       1.949  1.900  0.770   12.000    Y    Y      Y    6-31g**
  C50       1.949  1.900  0.770   12.000    Y    Y      Y    6-31g**
  C51       1.949  1.900  0.770   12.000    Y    Y      Y    6-31g**
  C52       1.949  1.900  0.770   12.000    Y    Y      Y    6-31g**
  C53       1.949  1.900  0.770   12.000    Y    Y      Y    6-31g**
  C54       1.949  1.900  0.770   12.000    Y    Y      Y    6-31g**
  C55       1.949  1.900  0.770   12.000    Y    Y      Y    6-31g**
  C56       1.949  1.900  0.770   12.000    Y    Y      Y    6-31g**
  C57       1.949  1.900  0.770   12.000    Y    Y      Y    6-31g**
  C58       1.949  1.900  0.770   12.000    Y    Y      Y    6-31g**
  C59       1.949  1.900  0.770   12.000    Y    Y      Y    6-31g**
  C60       1.949  1.900  0.770   12.000    Y    Y      Y    6-31g**
  C61       1.949  1.900  0.770   12.000    Y    Y      Y    6-31g**
  C62       1.949  1.900  0.770   12.000    Y    Y      Y    6-31g**
  C63       1.949  1.900  0.770   12.000    Y    Y      Y    6-31g**
  C64       1.949  1.900  0.770   12.000    Y    Y      Y    6-31g**
  C65       1.949  1.900  0.770   12.000    Y    Y      Y    6-31g**
  C66       1.949  1.900  0.770   12.000    Y    Y      Y    6-31g**
  C67       1.949  1.900  0.770   12.000    Y    Y      Y    6-31g**
  C68       1.949  1.900  0.770   12.000    Y    Y      Y    6-31g**
  C69       1.949  1.900  0.770   12.000    Y    Y      Y    6-31g**
  C70       1.949  1.900  0.770   12.000    Y    Y      Y    6-31g**
  N71       1.831  1.600  0.750   14.003    Y    Y      Y    6-31g**
  S72       2.070  1.900  1.020   31.972    Y    Y      Y    6-31g**
  O73       1.702  1.600  0.730   15.995    Y    Y      Y    6-31g**
  O74       1.702  1.600  0.730   15.995    Y    Y      Y    6-31g**
  C75       1.949  1.900  0.770   12.000    Y    Y      Y    6-31g**
  C76       1.949  1.900  0.770   12.000    Y    Y      Y    6-31g**
  C77       1.949  1.900  0.770   12.000    Y    Y      Y    6-31g**
  C78       1.949  1.900  0.770   12.000    Y    Y      Y    6-31g**
  C79       1.949  1.900  0.770   12.000    Y    Y      Y    6-31g**
  N80       1.831  1.600  0.750   14.003    Y    Y      Y    6-31g**
  N81       1.831  1.600  0.750   14.003    Y    Y      Y    6-31g**
  C82       1.949  1.900  0.770   12.000    Y    Y      Y    6-31g**
  C83       1.949  1.900  0.770   12.000    Y    Y      Y    6-31g**
  C84       1.949  1.900  0.770   12.000    Y    Y      Y    6-31g**
  C85       1.949  1.900  0.770   12.000    Y    Y      Y    6-31g**
  H86       1.597  1.150  0.320    1.008    Y    Y      Y    6-31g**
  H87       1.597  1.150  0.320    1.008    Y    Y      Y    6-31g**
  H88       1.597  1.150  0.320    1.008    Y    Y      Y    6-31g**
  H89       1.597  1.150  0.320    1.008    Y    Y      Y    6-31g**
  H90       1.597  1.150  0.320    1.008    Y    Y      Y    6-31g**
  H91       1.597  1.150  0.320    1.008    Y    Y      Y    6-31g**
  H92       1.597  1.150  0.320    1.008    Y    Y      Y    6-31g**
  H93       1.597  1.150  0.320    1.008    Y    Y      Y    6-31g**
  H94       1.597  1.150  0.320    1.008    Y    Y      Y    6-31g**
  H95       1.597  1.150  0.320    1.008    Y    Y      Y    6-31g**
  H96       1.597  1.150  0.320    1.008    Y    Y      Y    6-31g**
  H97       1.597  1.150  0.320    1.008    Y    Y      Y    6-31g**
  H98       1.597  1.150  0.320    1.008    Y    Y      Y    6-31g**
  H99       1.597  1.150  0.320    1.008    Y    Y      Y    6-31g**
  H100      1.597  1.150  0.320    1.008    Y    Y      Y    6-31g**
  H101      1.597  1.150  0.320    1.008    Y    Y      Y    6-31g**
  H102      1.597  1.150  0.320    1.008    Y    Y      Y    6-31g**
  H103      1.597  1.150  0.320    1.008    Y    Y      Y    6-31g**
  H104      1.597  1.150  0.320    1.008    Y    Y      Y    6-31g**
  H105      1.597  1.150  0.320    1.008    Y    Y      Y    6-31g**
  H106      1.597  1.150  0.320    1.008    Y    Y      Y    6-31g**
  H107      1.597  1.150  0.320    1.008    Y    Y      Y    6-31g**
  H108      1.597  1.150  0.320    1.008    Y    Y      Y    6-31g**
  H109      1.597  1.150  0.320    1.008    Y    Y      Y    6-31g**
  H110      1.597  1.150  0.320    1.008    Y    Y      Y    6-31g**
  H111      1.597  1.150  0.320    1.008    Y    Y      Y    6-31g**
  H112      1.597  1.150  0.320    1.008    Y    Y      Y    6-31g**
  H113      1.597  1.150  0.320    1.008    Y    Y      Y    6-31g**
  H114      1.597  1.150  0.320    1.008    Y    Y      Y    6-31g**
  H115      1.597  1.150  0.320    1.008    Y    Y      Y    6-31g**
  H116      1.597  1.150  0.320    1.008    Y    Y      Y    6-31g**
  H117      1.597  1.150  0.320    1.008    Y    Y      Y    6-31g**
  H118      1.597  1.150  0.320    1.008    Y    Y      Y    6-31g**
  H119      1.597  1.150  0.320    1.008    Y    Y      Y    6-31g**
  H120      1.597  1.150  0.320    1.008    Y    Y      Y    6-31g**
  H121      1.597  1.150  0.320    1.008    Y    Y      Y    6-31g**
  H122      1.597  1.150  0.320    1.008    Y    Y      Y    6-31g**
  H123      1.597  1.150  0.320    1.008    Y    Y      Y    6-31g**
  H124      1.597  1.150  0.320    1.008    Y    Y      Y    6-31g**
  H125      1.597  1.150  0.320    1.008    Y    Y      Y    6-31g**
  H126      1.597  1.150  0.320    1.008    Y    Y      Y    6-31g**
  H127      1.597  1.150  0.320    1.008    Y    Y      Y    6-31g**
  H128      1.597  1.150  0.320    1.008    Y    Y      Y    6-31g**
  H129      1.597  1.150  0.320    1.008    Y    Y      Y    6-31g**
  H130      1.597  1.150  0.320    1.008    Y    Y      Y    6-31g**
  H131      1.597  1.150  0.320    1.008    Y    Y      Y    6-31g**
  H132      1.597  1.150  0.320    1.008    Y    Y      Y    6-31g**
  H133      1.597  1.150  0.320    1.008    Y    Y      Y    6-31g**
  H134      1.597  1.150  0.320    1.008    Y    Y      Y    6-31g**
  H135      1.597  1.150  0.320    1.008    Y    Y      Y    6-31g**
  H136      1.597  1.150  0.320    1.008    Y    Y      Y    6-31g**
  H137      1.597  1.150  0.320    1.008    Y    Y      Y    6-31g**
  H138      1.597  1.150  0.320    1.008    Y    Y      Y    6-31g**
  H139      1.597  1.150  0.320    1.008    Y    Y      Y    6-31g**
  H140      1.597  1.150  0.320    1.008    Y    Y      Y    6-31g**
  H141      1.597  1.150  0.320    1.008    Y    Y      Y    6-31g**
  
  Peak memory usage:    766 Mb
  
  end of program pre
   
 Time(pre)  user:        1.0  user+sys:        1.0  wallclock:        2.0
  
  start of program onee
  
  smallest eigenvalue of S:    2.210E-04
  number of canonical orbitals.....         1564
  Peak memory usage:    893 Mb
  
  end of program onee
   
 Time(onee)  user:       15.8  user+sys:       15.8  wallclock:       20.6
  
  start of program hfig
  
  initial wavefunction generated automatically from atomic wavefunctions
 
  Irreducible     Total no   No of occupied orbitals 
  representation  orbitals   Shell_1  Shell_2    ...
  No Symm         1564        308
  ------------------------
  Orbital occupation/shell    1.000
 
  Peak memory usage:    826 Mb
  
  end of program hfig
   
 Time(hfig)  user:       27.2  user+sys:       27.2  wallclock:       34.8
  
  start of program probe
  
  Peak memory usage:    820 Mb
  
  end of program probe
   
 Time(probe)  user:       19.4  user+sys:       19.4  wallclock:       23.0
  
  start of program grid
  
   grid     grid set  grid #  grid sym
  ------    --------  ------  --------
  coarse        0        0        1
  medium        2        1        1
  fine          0        0        1
  ultrafine     4        2        1
  charge       -1        3        1
  gradient      4        2        1
  density       0        0        1
  DFT-fine    -13        4        1
  DFT-med.    -13        4        1
  DFT-grad    -13        4        1
  DFT-der2      0        0        1
  DFT-cphf      0        0        1
  LMP2-enrg     4        2        1
  LMP2-grad     2        1        1
  DFT-cphf2     0        0        1
  PBF-dens      0        0        1
  plotting      0        0        1
  Rel-grad    -17        0        1
  
  number of gridpoints: 
     atom        C1       C2       C3       C4       C5       C6       C7
  grid # 1       97      101       94      102      100       96       92
  grid # 2      338      360      336      367      358      336      336
  grid # 3       34       29       44       49       15       48       24
  grid # 4    48124    48124    48124    48124    48124    48124    48124
   
  number of gridpoints: 
     atom        C8       C9      C10      C11      O12     Si13      C14
  grid # 1       94       97      100       99      112      470      101
  grid # 2      336      357      352      357      438      470      355
  grid # 3       49       16       11       10       42        7       11
  grid # 4    48124    48124    48124    48124    47716    38542    48124
   
  number of gridpoints: 
     atom       C15      C16      C17      C18      C19      C20     Si21
  grid # 1       97      101       96       92       97      100      483
  grid # 2      354      364      333      332      335      360      483
  grid # 3       22       24       14       19       25        8       10
  grid # 4    48124    48124    48124    48124    48124    48124    38542
   
  number of gridpoints: 
     atom       O22      C23      C24      P25      O26      O27      C28
  grid # 1      112       94       93      445      115      112      100
  grid # 2      438      335      334      445      450      429      358
  grid # 3       64       22       26       11       76       36        6
  grid # 4    47716    48124    48124    38640    47716    47716    48124
   
  number of gridpoints: 
     atom       C29      C30      C31      C32      C33      C34      C35
  grid # 1      100      100      100      102      100       92       94
  grid # 2      358      359      356      361      359      332      330
  grid # 3       10        9        9       21       20       14        8
  grid # 4    48124    48124    48124    48124    48124    48124    48124
   
  number of gridpoints: 
     atom       C36      C37      C38      C39      C40      C41      C42
  grid # 1       92       96       92       96       92       94       92
  grid # 2      335      339      335      335      334      329      336
  grid # 3       18       30       17       13       18        7       28
  grid # 4    48124    48124    48124    48124    48124    48124    48124
   
  number of gridpoints: 
     atom       C43      C44      C45      C46      C47      C48      C49
  grid # 1       97       94       96       93       93       92       93
  grid # 2      340      333      333      330      333      333      335
  grid # 3       33       31       22       20       25       20       39
  grid # 4    48124    48124    48124    48124    48124    48124    48124
   
  number of gridpoints: 
     atom       C50      C51      C52      C53      C54      C55      C56
  grid # 1       94       94       93       93       93       93       93
  grid # 2      335      336      333      333      334      333      333
  grid # 3       46       43       29       30       21       30       30
  grid # 4    48124    48124    48124    48124    48124    48124    48124
   
  number of gridpoints: 
     atom       C57      C58      C59      C60      C61      C62      C63
  grid # 1       93       94       94       94       93       93       93
  grid # 2      332      336      336      337      336      335      333
  grid # 3       19       44       47       45       38       37       33
  grid # 4    48124    48124    48124    48124    48124    48124    48124
   
  number of gridpoints: 
     atom       C64      C65      C66      C67      C68      C69      C70
  grid # 1       96       96      100       95       95       96       91
  grid # 2      332      334      360      331      333      332      324
  grid # 3       36       29       24       17       26       36        6
  grid # 4    48124    48124    48124    48124    48124    48124    48124
   
  number of gridpoints: 
     atom       N71      S72      O73      O74      C75      C76      C77
  grid # 1      100      447      123      119       98       96       96
  grid # 2      357      447      502      473      357      327      328
  grid # 3       14       12      290       84       26       32       31
  grid # 4    47928    48492    47716    47716    48124    48124    48124
   
  number of gridpoints: 
     atom       C78      C79      N80      N81      C82      C83      C84
  grid # 1       96       96      110       97       94       93       93
  grid # 2      332      338      411      342      328      329      325
  grid # 3       37       34       45        7        9       11        6
  grid # 4    48124    48124    47928    47928    48124    48124    48124
   
  number of gridpoints: 
     atom       C85      H86      H87      H88      H89      H90      H91
  grid # 1       91      112      118      118      110      118      113
  grid # 2      321      434      452      446      426      453      432
  grid # 3        6      231      418      360      173      424      211
  grid # 4    48124    48426    48426    48426    48426    48426    48426
   
  number of gridpoints: 
     atom       H92      H93      H94      H95      H96      H97      H98
  grid # 1      113      117      117      117       95      107      111
  grid # 2      429      443      449      449      384      417      437
  grid # 3      211      344      388      397       45      140      257
  grid # 4    48426    48426    48426    48426    48426    48426    48426
   
  number of gridpoints: 
     atom       H99     H100     H101     H102     H103     H104     H105
  grid # 1      112      111      112      108      107      112      109
  grid # 2      437      433      431      424      418      432      427
  grid # 3      261      238      236      148      116      236      186
  grid # 4    48426    48426    48426    48426    48426    48426    48426
   
  number of gridpoints: 
     atom      H106     H107     H108     H109     H110     H111     H112
  grid # 1      110      111      105      112      117      117      118
  grid # 2      429      428      407      436      448      448      452
  grid # 3      218      208       66      267      366      373      414
  grid # 4    48426    48426    48426    48426    48426    48426    48426
   
  number of gridpoints: 
     atom      H113     H114     H115     H116     H117     H118     H119
  grid # 1      118      118      118      117      114      112      117
  grid # 2      453      453      451      452      439      432      451
  grid # 3      423      425      411      401      292      222      389
  grid # 4    48426    48426    48426    48426    48426    48426    48426
   
  number of gridpoints: 
     atom      H120     H121     H122     H123     H124     H125     H126
  grid # 1      117      118      118      118      118      117      113
  grid # 2      445      452      453      453      451      450      437
  grid # 3      355      418      424      423      408      378      266
  grid # 4    48426    48426    48426    48426    48426    48426    48426
   
  number of gridpoints: 
     atom      H127     H128     H129     H130     H131     H132     H133
  grid # 1      118      112      104      109      118      107      108
  grid # 2      450      437      408      423      449      418      431
  grid # 3      413      284       77      157      398      149      214
  grid # 4    48426    48426    48426    48426    48426    48426    48426
   
  number of gridpoints: 
     atom      H134     H135     H136     H137     H138     H139     H140
  grid # 1      115      113      110      100      112      116      115
  grid # 2      447      437      429      394      439      459      450
  grid # 3      337      257      208       70      242      425      365
  grid # 4    48426    48426    48426    48426    48426    48426    48426
   
  number of gridpoints: 
     atom      H141    total
  grid # 1      106    16040
  grid # 2      414    54584
  grid # 3      118    18355
  grid # 4    48426  6771080
   
  Peak memory usage:    793 Mb
  
  end of program grid
   
 Time(grid)  user:     1083.8  user+sys:     1083.8  wallclock:     1629.9
  
  start of program rwr
  
  Peak memory usage:    802 Mb
  
  end of program rwr
   
 Time(rwr)  user:       61.2  user+sys:       61.2  wallclock:      100.3
  
  start of program scf
  
 number of electrons..........        616
 number of alpha electrons....        308
 number of beta electrons.....        308
 number of orbitals, total....       1564
 number of doubly-occ'd orbs..        308
 number of open shell orbs....          0
 number of occupied orbitals..        308
 number of virtual orbitals...       1256
 number of hamiltonians.......          1
 number of shells.............          1
 SCF type: DFT=M06-2X
 Energy computed with NOPS off.
  
       i  u  d  i  g                   
       t  p  i  c  r                                 RMS    maximum
       e  d  i  u  i                       energy  density   DIIS  
       r  t  s  t  d       total energy    change  change    error 
  
etot    1  N  N  1  U   -4700.10041042811           2.4E-03  1.0E-01
etot    2  N  Y  1  U   -4706.37974034391  6.3E+00  2.4E-03  6.4E-02
etot    3  N  Y  1  U   -4706.63555430939  2.6E-01  1.8E-03  8.9E-02
etot    4  N  Y  1  U   -4709.82099461747  3.2E+00  5.5E-04  1.5E-02
etot    5  N  Y  1  U   -4709.90027717132  7.9E-02  2.7E-04  1.7E-02
etot    6  N  Y  1  U   -4710.02866603829  1.3E-01  6.9E-05  3.3E-03
etot    7  N  Y  1  U   -4710.03329941320  4.6E-03  2.7E-05  8.8E-04
etot    8  N  Y  1  U   -4710.03403175777  7.3E-04  1.1E-05  3.3E-04
etot    9  N  Y  1  U   -4710.03416687523  1.4E-04  3.9E-06  1.3E-04
etot   10  N  N  1  U   -4710.03418546878  1.9E-05  0.0E+00  0.0E+00
  
  
 Energy components, in hartrees:
   (A)  Nuclear repulsion............   17588.00958931299
   (E)  Total one-electron terms.....  -41514.53679636103
   (F)    Electron-nuclear...........  -46189.80520286028
   (H)    Kinetic....................    4675.26840649925
   (I)  Total two-electron terms.....   19216.49302157926
   (J)    Coulomb....................   19789.82127097400
   (K)    Exchange+Correlation.......    -573.32824939475
   (L)  Electronic energy............  -22298.04377478178  (E+I)
   (M)  -V/T.........................       2.00743610333  (-(A+F+I)/H)
   (N)  Total energy.................   -4710.03418546878  (A+L)
   (O)  Gas phase energy.............   -4710.03418546878
  
 SCFE: SCF energy: DFT(m06-2x)     -4710.03418546878 hartrees   iterations:  10
  
 
 HOMO energy:    -0.25320
 LUMO energy:    -0.06048
 
  Orbital energies (hartrees): 
   -90.15714   -78.18474   -67.00878   -66.99538   -19.67088   -19.66921
   -19.63909   -19.63774   -19.59470   -19.58393   -14.80993   -14.79638
   -14.78074   -10.65761   -10.62572   -10.61757   -10.61518   -10.60907
   -10.60021   -10.59428   -10.58658   -10.58406   -10.57998   -10.57604
   -10.57276   -10.57242   -10.57077   -10.56774   -10.56691   -10.56607
   -10.56504   -10.56477   -10.56352   -10.56261   -10.56191   -10.56011
   -10.55892   -10.55878   -10.55843   -10.55724   -10.55675   -10.55501
   -10.55482   -10.55444   -10.55379   -10.55257   -10.55183   -10.55104
   -10.54968   -10.54953   -10.54865   -10.54801   -10.54755   -10.54752
   -10.54750   -10.54615   -10.54607   -10.54209   -10.54200   -10.54158
   -10.54099   -10.54055   -10.53982   -10.53885   -10.53860   -10.53850
   -10.53691   -10.53670   -10.53630   -10.53541   -10.53419   -10.53356
   -10.53344   -10.53321   -10.53262   -10.53212   -10.53139   -10.52893
   -10.52715   -10.52615   -10.52543   -10.52488   -10.52173   -10.51744
   -10.51369    -8.46826    -6.96365    -6.39037    -6.38932    -6.38875
    -5.53968    -5.52684    -5.08224    -5.08108    -5.07964    -3.84950
    -3.84920    -3.84894    -3.83672    -3.83626    -3.83602    -1.23080
    -1.21047    -1.16487    -1.11621    -1.10275    -1.08809    -1.07569
    -1.05666    -1.03915    -0.97988    -0.97248    -0.96412    -0.94794
    -0.94205    -0.93446    -0.93309    -0.92714    -0.92119    -0.92012
    -0.91939    -0.90824    -0.89587    -0.88896    -0.88784    -0.87364
    -0.85426    -0.85149    -0.84414    -0.84045    -0.83515    -0.83480
    -0.83268    -0.83015    -0.82878    -0.82596    -0.82530    -0.82527
    -0.82020    -0.82002    -0.81860    -0.81535    -0.81206    -0.80730
    -0.79880    -0.79781    -0.74938    -0.73348    -0.73224    -0.71009
    -0.70579    -0.69906    -0.69158    -0.69120    -0.68719    -0.68389
    -0.68190    -0.67580    -0.67495    -0.67291    -0.66814    -0.66694
    -0.66578    -0.66407    -0.66231    -0.65980    -0.65777    -0.65632
    -0.65335    -0.65004    -0.64615    -0.64360    -0.64151    -0.63539
    -0.61599    -0.61099    -0.60796    -0.59696    -0.59340    -0.59310
    -0.58257    -0.57887    -0.57806    -0.57557    -0.57309    -0.57295
    -0.56877    -0.56255    -0.55924    -0.55632    -0.54963    -0.54472
    -0.54169    -0.53709    -0.53518    -0.53262    -0.52826    -0.52443
    -0.52270    -0.52043    -0.51874    -0.51741    -0.51357    -0.51174
    -0.50929    -0.50776    -0.50581    -0.50486    -0.50089    -0.49998
    -0.49949    -0.49860    -0.49731    -0.49638    -0.49313    -0.49237
    -0.49137    -0.49097    -0.49023    -0.48662    -0.48597    -0.48496
    -0.48458    -0.48186    -0.48119    -0.47958    -0.47862    -0.47385
    -0.47300    -0.47240    -0.46826    -0.46666    -0.46488    -0.46185
    -0.46022    -0.45617    -0.45422    -0.44792    -0.44732    -0.44673
    -0.44453    -0.44177    -0.43811    -0.43357    -0.43310    -0.43161
    -0.42754    -0.42440    -0.42212    -0.42153    -0.41767    -0.41459
    -0.41288    -0.41155    -0.40910    -0.40738    -0.40449    -0.40051
    -0.39724    -0.39642    -0.39414    -0.39154    -0.38889    -0.38601
    -0.38448    -0.38353    -0.38221    -0.38142    -0.37983    -0.37701
    -0.37579    -0.37354    -0.37088    -0.36823    -0.36481    -0.35745
    -0.35244    -0.34914    -0.34467    -0.34262    -0.34050    -0.33876
    -0.33688    -0.33369    -0.33151    -0.32930    -0.32813    -0.32400
    -0.31957    -0.31395    -0.31115    -0.30447    -0.30007    -0.29882
    -0.29739    -0.29393    -0.29194    -0.28964    -0.28754    -0.28648
    -0.28336    -0.28180    -0.27940    -0.27473    -0.27320    -0.27021
    -0.26882    -0.25320    -0.06048    -0.02193    -0.01094     0.00148
     0.00586     0.01379     0.01514     0.01907     0.02295     0.02447
 
  Peak memory usage:   1020 Mb
  
  end of program scf
   
 Time(scf)  user:    24988.1  user+sys:    24988.1  wallclock:    40155.5
  
  start of program ch
  
  gridpoints used for charge fit        15786
    out of a possible maximum of        18355
  
   Electrostatic potential fitting constrained to reproduce
     total charge:                yes
     dipole moment:               no 
     traceless quadrupole moment: no 
     traceless octapole moment:   no 
  
  Atomic charges from electrostatic potential: 
   
 Atom       C1           C2           C3           C4           C5      
 Charge   -0.09778      0.02475     -0.18565      0.15147     -0.09370
   
 Atom       C6           C7           C8           C9           C10     
 Charge   -0.21017     -0.30656     -0.10947      0.15700     -0.08032
   
 Atom       C11          O12          Si13         C14          C15     
 Charge    0.06681     -0.36636     -0.16353      0.15408      0.23734
   
 Atom       C16          C17          C18          C19          C20     
 Charge    0.20081     -0.18332     -0.37289     -0.25187     -0.06970
   
 Atom       Si21         O22          C23          C24          P25     
 Charge    0.00559     -0.26605     -0.17734     -0.09385      0.94740
   
 Atom       O26          O27          C28          C29          C30     
 Charge   -0.56544     -0.62948      0.36549      0.19550      0.13416
   
 Atom       C31          C32          C33          C34          C35     
 Charge    0.06640     -0.02597      0.11103     -0.33279     -0.29123
   
 Atom       C36          C37          C38          C39          C40     
 Charge   -0.18648     -0.24976     -0.14818     -0.21514     -0.06284
   
 Atom       C41          C42          C43          C44          C45     
 Charge    0.01706     -0.07434     -0.04366     -0.25318     -0.12588
   
 Atom       C46          C47          C48          C49          C50     
 Charge   -0.08335     -0.14871     -0.08914     -0.13104     -0.15947
   
 Atom       C51          C52          C53          C54          C55     
 Charge   -0.08414     -0.15344     -0.15684     -0.06230     -0.26735
   
 Atom       C56          C57          C58          C59          C60     
 Charge   -0.05626     -0.22169     -0.17608     -0.09771     -0.18538
   
 Atom       C61          C62          C63          C64          C65     
 Charge   -0.08950     -0.16075     -0.07632     -0.14036     -0.16529
   
 Atom       C66          C67          C68          C69          C70     
 Charge    0.11228     -0.00111     -0.06359     -0.18078     -0.03527
   
 Atom       N71          S72          O73          O74          C75     
 Charge   -0.46178      0.78148     -0.46772     -0.41603      0.28545
   
 Atom       C76          C77          C78          C79          N80     
 Charge   -0.32383      0.08954     -0.24944      0.14141     -0.25762
   
 Atom       N81          C82          C83          C84          C85     
 Charge   -0.05942     -0.14856     -0.12916     -0.26648      0.05307
   
 Atom       H86          H87          H88          H89          H90     
 Charge    0.10185      0.14637      0.13956      0.16449      0.13095
   
 Atom       H91          H92          H93          H94          H95     
 Charge    0.13518      0.19617      0.15128      0.14651      0.12523
   
 Atom       H96          H97          H98          H99          H100    
 Charge    0.41321      0.16799      0.15572      0.13297      0.13064
   
 Atom       H101         H102         H103         H104         H105    
 Charge    0.11143      0.13819      0.09782      0.08173      0.11646
   
 Atom       H106         H107         H108         H109         H110    
 Charge    0.05515      0.16098      0.04322      0.10472      0.11850
   
 Atom       H111         H112         H113         H114         H115    
 Charge    0.12618      0.12934      0.13278      0.12230      0.13494
   
 Atom       H116         H117         H118         H119         H120    
 Charge    0.13556      0.08855      0.16284      0.12147      0.13457
   
 Atom       H121         H122         H123         H124         H125    
 Charge    0.13375      0.12485      0.14196      0.12651      0.13318
   
 Atom       H126         H127         H128         H129         H130    
 Charge    0.09063      0.14655      0.12876      0.03900      0.10123
   
 Atom       H131         H132         H133         H134         H135    
 Charge    0.14978      0.17933      0.16485      0.10880      0.13457
   
 Atom       H136         H137         H138         H139         H140    
 Charge    0.08950      0.28582      0.20451      0.15358      0.18516
   
 Atom       H141    
 Charge    0.12357
  
  sum of atomic charges:     0.000000
   
 RMS Error   9.53E-04 hartrees
 
  Peak memory usage:    810 Mb
  
  end of program ch
   
 Time(ch)  user:       16.6  user+sys:       16.6  wallclock:       24.2
  
  start of program post
  
  Writing input files for PBF
  Peak memory usage:    758 Mb
  
  end of program post
   
 Time(post)  user:        0.8  user+sys:        0.8  wallclock:        1.6

  start of program pbf

Pbf Version 4.10

Molecular surface area:      784.18875   [A2]
Reaction field energy:       -15.49383   [kT]
  Peak memory usage: 718 Mb

  end of program pbf

 Time(pbf)  user:        9.8  user+sys:        9.9  wallclock:       13.0
  
  start of program solv
  
   number of surface charges from PBF   12964
   sum of surface charges     -0.00031
   
  nuclear repulsion energy.......   17588.009589313 hartrees
  Peak memory usage:    887 Mb
  
  end of program solv
   
 Time(solv)  user:       33.6  user+sys:       33.6  wallclock:       42.4
  
  start of program scf
  
 Energy computed with NOPS off.
  
       i  u  d  i  g                   
       t  p  i  c  r                                 RMS    maximum
       e  d  i  u  i                       energy  density   DIIS  
       r  t  s  t  d       total energy    change  change    error 
  
etot    1  N  N  1  U   -4710.06689996642           5.1E-05  1.1E-03
etot    2  N  Y  1  U   -4710.06762050247  7.2E-04  1.5E-05  5.2E-04
etot    3  N  Y  1  U   -4710.06780376083  1.8E-04  5.2E-06  2.2E-04
etot    4  N  N  1  U   -4710.06783906755  3.5E-05  0.0E+00  0.0E+00
  
  
 Energy components, in hartrees:
   (A)  Total zero-electron terms....   17589.83580212486
   (B)    Nuclear-nuclear............   17588.00958931299
   (C)    Nuclear-solvent............       1.82621281187
   (E)  Total one-electron terms.....  -41517.63332459725
   (F)    Electron-nuclear...........  -46191.08246179422
   (G)    Electron-solvent...........      -1.86079438806
   (H)    Kinetic....................    4675.30993158503
   (I)  Total two-electron terms.....   19217.72968340484
   (J)    Coulomb....................   19791.07572776697
   (K)    Exchange+Correlation.......    -573.34604436213
   (L)  Electronic energy............  -22299.90364119241  (E+I)
   (N)  Total quantum mech. energy...   -4710.06783906755  (A+L)
   (O)  Gas phase energy.............   -4710.03418546878
   (P)  Solution phase energy........   -4710.05054827945  (Q+R+S)
   (Q)    Total solute energy........   -4710.03325749135  (N-C-G)
   (R)    Total solvent energy.......      -0.01729078810  (C/2+G/2)
   (S)    Solute cavity energy.......       0.00000000000
   (U)  Reorganization energy........       0.00092797743  (Q-O)
   (V)  Solvation energy.............      -0.01636281067  (P-O)
  
 SCFE:  Solution phase energy: DFT(m06-2x)      -4710.05054827945 hartrees
        SCF iterations:   4
  
 
 HOMO energy:    -0.25382
 LUMO energy:    -0.05816
 
  Orbital energies (hartrees): 
   -90.16123   -78.18538   -67.00963   -66.99930   -19.67154   -19.67075
   -19.64384   -19.64383   -19.59488   -19.58404   -14.80649   -14.79687
   -14.77959   -10.65478   -10.62589   -10.61713   -10.61711   -10.60694
   -10.59904   -10.59178   -10.58498   -10.58330   -10.57656   -10.57505
   -10.56985   -10.56921   -10.56834   -10.56642   -10.56394   -10.56392
   -10.56375   -10.56356   -10.56193   -10.56086   -10.55963   -10.55954
   -10.55866   -10.55743   -10.55702   -10.55702   -10.55595   -10.55487
   -10.55347   -10.55335   -10.55292   -10.55266   -10.55233   -10.55127
   -10.55067   -10.55065   -10.55047   -10.55028   -10.54957   -10.54908
   -10.54875   -10.54837   -10.54812   -10.54673   -10.54629   -10.54411
   -10.54317   -10.54262   -10.54232   -10.54185   -10.54179   -10.54021
   -10.53940   -10.53918   -10.53749   -10.53714   -10.53693   -10.53644
   -10.53636   -10.53584   -10.53514   -10.53506   -10.53475   -10.53379
   -10.53209   -10.53098   -10.52960   -10.52692   -10.52667   -10.52035
   -10.51874    -8.47233    -6.96429    -6.39439    -6.39347    -6.39280
    -5.54052    -5.53077    -5.08288    -5.08172    -5.08026    -3.85033
    -3.85004    -3.84980    -3.84064    -3.84020    -3.83995    -1.23574
    -1.21124    -1.16594    -1.12183    -1.10070    -1.08798    -1.07532
    -1.05686    -1.03935    -0.98019    -0.96941    -0.96569    -0.94740
    -0.94372    -0.93942    -0.93471    -0.93038    -0.92572    -0.91982
    -0.91931    -0.90949    -0.89502    -0.88862    -0.88625    -0.87132
    -0.85224    -0.85080    -0.84447    -0.83952    -0.83656    -0.83619
    -0.83242    -0.83073    -0.83069    -0.82902    -0.82659    -0.82616
    -0.82312    -0.82155    -0.82136    -0.81907    -0.81665    -0.81183
    -0.79854    -0.79820    -0.74826    -0.73321    -0.73171    -0.70864
    -0.70530    -0.69924    -0.69324    -0.68961    -0.68792    -0.68359
    -0.68079    -0.67497    -0.67376    -0.67254    -0.67140    -0.66971
    -0.66776    -0.66294    -0.66265    -0.66065    -0.65884    -0.65789
    -0.65542    -0.65392    -0.64958    -0.64424    -0.64045    -0.63415
    -0.61679    -0.60874    -0.60828    -0.59842    -0.59531    -0.59473
    -0.58201    -0.57910    -0.57859    -0.57486    -0.57359    -0.57331
    -0.57092    -0.56624    -0.56031    -0.55740    -0.54817    -0.54476
    -0.54058    -0.53774    -0.53598    -0.53333    -0.52801    -0.52575
    -0.52337    -0.51972    -0.51819    -0.51602    -0.51317    -0.51161
    -0.51134    -0.50871    -0.50543    -0.50497    -0.50202    -0.50115
    -0.49997    -0.49692    -0.49619    -0.49543    -0.49540    -0.49327
    -0.49254    -0.49148    -0.48941    -0.48865    -0.48734    -0.48557
    -0.48448    -0.48320    -0.48169    -0.48077    -0.48030    -0.47695
    -0.47404    -0.47112    -0.46894    -0.46651    -0.46420    -0.46383
    -0.46142    -0.45689    -0.45430    -0.44920    -0.44782    -0.44700
    -0.44475    -0.44289    -0.43862    -0.43737    -0.43354    -0.43145
    -0.42695    -0.42563    -0.42382    -0.42083    -0.41924    -0.41645
    -0.41615    -0.41128    -0.41047    -0.40877    -0.40593    -0.40432
    -0.39750    -0.39600    -0.39533    -0.39317    -0.39206    -0.38814
    -0.38628    -0.38480    -0.38452    -0.38369    -0.38042    -0.37958
    -0.37865    -0.37603    -0.37450    -0.37044    -0.36577    -0.35693
    -0.35336    -0.34991    -0.34519    -0.34256    -0.34157    -0.34027
    -0.33730    -0.33402    -0.33279    -0.33095    -0.32979    -0.32575
    -0.32148    -0.31189    -0.30885    -0.30385    -0.30223    -0.30067
    -0.29909    -0.29753    -0.29693    -0.29147    -0.29000    -0.28721
    -0.28507    -0.28380    -0.28047    -0.27836    -0.27709    -0.27524
    -0.27020    -0.25382    -0.05816    -0.02178    -0.01095     0.00233
     0.00339     0.01363     0.01497     0.01870     0.02269     0.02456
 
  Peak memory usage:   1020 Mb
  
  end of program scf
   
 Time(scf)  user:     7297.1  user+sys:     7297.1  wallclock:    11746.3
  
  start of program sole
  
    SCRF                   solvation energy
  iteration          Hartrees            kcal/mol
     0               0.0000000            0.0000
     1              -0.0163628          -10.2678
  
  solvation energy not yet converged... 
  
  Peak memory usage:    812 Mb
  
  end of program sole
   
 Time(sole)  user:        0.1  user+sys:        0.1  wallclock:        0.2
  
  start of program ch
  
  gridpoints used for charge fit        15786
    out of a possible maximum of        15786
  
   Electrostatic potential fitting constrained to reproduce
     total charge:                yes
     dipole moment:               no 
     traceless quadrupole moment: no 
     traceless octapole moment:   no 
  
  Atomic charges from electrostatic potential: 
   
 Atom       C1           C2           C3           C4           C5      
 Charge   -0.09636      0.02013     -0.19544      0.15657     -0.09080
   
 Atom       C6           C7           C8           C9           C10     
 Charge   -0.22061     -0.32821     -0.11430      0.13737     -0.08061
   
 Atom       C11          O12          Si13         C14          C15     
 Charge    0.09507     -0.35210     -0.19551      0.16601      0.21376
   
 Atom       C16          C17          C18          C19          C20     
 Charge    0.19434     -0.19449     -0.37595     -0.25461     -0.04873
   
 Atom       Si21         O22          C23          C24          P25     
 Charge   -0.01122     -0.24648     -0.17837     -0.10428      0.91821
   
 Atom       O26          O27          C28          C29          C30     
 Charge   -0.55209     -0.61480      0.38855      0.20209      0.14892
   
 Atom       C31          C32          C33          C34          C35     
 Charge    0.07250     -0.03091      0.11532     -0.35051     -0.30578
   
 Atom       C36          C37          C38          C39          C40     
 Charge   -0.19274     -0.25348     -0.15691     -0.22390     -0.07456
   
 Atom       C41          C42          C43          C44          C45     
 Charge    0.02484     -0.07694     -0.04078     -0.27173     -0.12718
   
 Atom       C46          C47          C48          C49          C50     
 Charge   -0.08687     -0.15749     -0.09020     -0.13705     -0.16762
   
 Atom       C51          C52          C53          C54          C55     
 Charge   -0.09197     -0.16000     -0.17018     -0.06480     -0.27575
   
 Atom       C56          C57          C58          C59          C60     
 Charge   -0.05979     -0.23367     -0.18299     -0.10515     -0.19586
   
 Atom       C61          C62          C63          C64          C65     
 Charge   -0.09489     -0.16710     -0.08300     -0.14677     -0.16851
   
 Atom       C66          C67          C68          C69          C70     
 Charge    0.11270      0.00111     -0.06583     -0.18345     -0.05779
   
 Atom       N71          S72          O73          O74          C75     
 Charge   -0.44491      0.79043     -0.49628     -0.41629      0.28431
   
 Atom       C76          C77          C78          C79          N80     
 Charge   -0.32714      0.09173     -0.25254      0.14054     -0.26592
   
 Atom       N81          C82          C83          C84          C85     
 Charge   -0.05809     -0.15887     -0.11991     -0.28332      0.07281
   
 Atom       H86          H87          H88          H89          H90     
 Charge    0.10258      0.15539      0.14617      0.17154      0.13909
   
 Atom       H91          H92          H93          H94          H95     
 Charge    0.13821      0.20135      0.15835      0.15384      0.13425
   
 Atom       H96          H97          H98          H99          H100    
 Charge    0.39879      0.17606      0.16126      0.13700      0.13037
   
 Atom       H101         H102         H103         H104         H105    
 Charge    0.11432      0.14157      0.10208      0.08219      0.11997
   
 Atom       H106         H107         H108         H109         H110    
 Charge    0.05326      0.16982      0.04162      0.10783      0.12592
   
 Atom       H111         H112         H113         H114         H115    
 Charge    0.13113      0.13706      0.14081      0.13022      0.14184
   
 Atom       H116         H117         H118         H119         H120    
 Charge    0.14320      0.09192      0.16963      0.12826      0.14307
   
 Atom       H121         H122         H123         H124         H125    
 Charge    0.14130      0.13276      0.15039      0.13391      0.13915
   
 Atom       H126         H127         H128         H129         H130    
 Charge    0.09558      0.15416      0.13660      0.04111      0.10395
   
 Atom       H131         H132         H133         H134         H135    
 Charge    0.15625      0.18842      0.17032      0.11743      0.14195
   
 Atom       H136         H137         H138         H139         H140    
 Charge    0.09428      0.28323      0.21426      0.15857      0.19666
   
 Atom       H141    
 Charge    0.11288
  
  sum of atomic charges:    -0.000000
   
 RMS Error   9.68E-04 hartrees
 
  Peak memory usage:    811 Mb
  
  end of program ch
   
 Time(ch)  user:       16.9  user+sys:       16.9  wallclock:       22.3
  
  start of program post
  
  Writing input files for PBF
  Peak memory usage:    758 Mb
  
  end of program post
   
 Time(post)  user:        0.8  user+sys:        0.8  wallclock:        2.0

  start of program pbf

Pbf Version 4.10

Molecular surface area:      784.18875   [A2]
Reaction field energy:       -17.69695   [kT]
  Peak memory usage: 718 Mb

  end of program pbf

 Time(pbf)  user:        9.5  user+sys:        9.6  wallclock:       14.4
  
  start of program solv
  
   number of surface charges from PBF   12964
   sum of surface charges     -0.00033
   
  nuclear repulsion energy.......   17588.009589313 hartrees
  Peak memory usage:    887 Mb
  
  end of program solv
   
 Time(solv)  user:       34.0  user+sys:       34.0  wallclock:       44.4
  
  start of program scf
  
 Energy computed with NOPS off.
  
       i  u  d  i  g                   
       t  p  i  c  r                                 RMS    maximum
       e  d  i  u  i                       energy  density   DIIS  
       r  t  s  t  d       total energy    change  change    error 
  
etot    1  N  N  1  U   -4710.07018809465           6.1E-06  8.2E-05
etot    2  N  N  1  U   -4710.07019620972  8.1E-06  0.0E+00  0.0E+00
  
  
 Energy components, in hartrees:
   (A)  Total zero-electron terms....   17590.03050398623
   (B)    Nuclear-nuclear............   17588.00958931299
   (C)    Nuclear-solvent............       2.02091467324
   (E)  Total one-electron terms.....  -41517.92326641515
   (F)    Electron-nuclear...........  -46191.21292142480
   (G)    Electron-solvent...........      -2.05808560106
   (H)    Kinetic....................    4675.34774061071
   (I)  Total two-electron terms.....   19217.82256621921
   (J)    Coulomb....................   19791.17517029657
   (K)    Exchange+Correlation.......    -573.35260407736
   (L)  Electronic energy............  -22300.10070019594  (E+I)
   (N)  Total quantum mech. energy...   -4710.07019620972  (A+L)
   (O)  Gas phase energy.............   -4710.03418546878
   (P)  Solution phase energy........   -4710.05161074580  (Q+R+S)
   (Q)    Total solute energy........   -4710.03302528189  (N-C-G)
   (R)    Total solvent energy.......      -0.01858546391  (C/2+G/2)
   (S)    Solute cavity energy.......       0.00000000000
   (U)  Reorganization energy........       0.00116018690  (Q-O)
   (V)  Solvation energy.............      -0.01742527702  (P-O)
  
 SCFE:  Solution phase energy: DFT(m06-2x)      -4710.05161074580 hartrees
        SCF iterations:   2
  
 
 HOMO energy:    -0.28466
 LUMO energy:    -0.05831
 
  Orbital energies (hartrees): 
   -72.56953   -69.52490   -67.76030   -64.73315   -26.13725   -23.28846
   -20.36892   -20.23583   -20.05776   -14.47660   -14.00422   -13.58460
   -13.11110   -13.01133   -12.96760   -12.42258   -12.40318   -11.21004
   -11.08228   -11.01829   -10.98346   -10.97852   -10.96775   -10.92672
   -10.86911   -10.78491   -10.69386   -10.67683   -10.66694   -10.64434
   -10.62641   -10.61541   -10.61377   -10.59784   -10.56829   -10.55561
   -10.55252   -10.54581   -10.54461   -10.54059   -10.53774   -10.53635
   -10.53560   -10.53286   -10.52988   -10.52641   -10.52606   -10.52118
   -10.51604   -10.50341   -10.50138   -10.49719   -10.49549   -10.49353
   -10.48805   -10.48471   -10.48133   -10.48131   -10.47748   -10.47694
   -10.46338   -10.45794   -10.45255   -10.44019   -10.43994   -10.43264
   -10.43210   -10.41342   -10.36979   -10.30057   -10.22710   -10.22427
   -10.21216   -10.10178   -10.01250   -10.00054    -9.94686    -9.72039
    -9.64502    -9.56992    -9.40562    -9.38490    -9.38098    -9.16558
    -8.84476    -8.79362    -8.41075    -8.38694    -8.34192    -8.10805
    -7.77054    -7.63395    -7.39804    -6.86601    -6.51345    -6.48236
    -6.45503    -5.62272    -4.53327    -4.11284    -3.90901    -1.22658
    -1.21620    -1.06256    -1.05482    -1.03880    -0.99175    -0.97703
    -0.97607    -0.97164    -0.96437    -0.94882    -0.93905    -0.92598
    -0.91531    -0.88982    -0.87582    -0.86331    -0.85910    -0.85795
    -0.85695    -0.85644    -0.85318    -0.81753    -0.81097    -0.81033
    -0.80697    -0.80428    -0.79755    -0.78343    -0.77992    -0.76774
    -0.76587    -0.76028    -0.75642    -0.74259    -0.73289    -0.73060
    -0.72889    -0.72590    -0.71780    -0.71088    -0.70728    -0.69837
    -0.69338    -0.69008    -0.68539    -0.68436    -0.66603    -0.66531
    -0.66056    -0.66051    -0.66020    -0.65408    -0.65039    -0.64662
    -0.64553    -0.63305    -0.63066    -0.62846    -0.62376    -0.62265
    -0.62073    -0.61945    -0.61505    -0.61278    -0.60548    -0.59378
    -0.59248    -0.59156    -0.58751    -0.58533    -0.57930    -0.57884
    -0.57755    -0.57646    -0.57579    -0.57550    -0.57409    -0.56891
    -0.56586    -0.56520    -0.56503    -0.56485    -0.56406    -0.55958
    -0.55855    -0.55444    -0.55326    -0.55308    -0.55229    -0.55034
    -0.54979    -0.54777    -0.54699    -0.53939    -0.53862    -0.53607
    -0.53599    -0.53598    -0.53571    -0.53471    -0.52917    -0.52701
    -0.52451    -0.52410    -0.52407    -0.52230    -0.52047    -0.51940
    -0.51843    -0.51486    -0.51329    -0.50713    -0.50686    -0.50674
    -0.50671    -0.50607    -0.50446    -0.49813    -0.49633    -0.49620
    -0.49592    -0.49552    -0.49479    -0.49401    -0.49324    -0.49324
    -0.49201    -0.49189    -0.48992    -0.48812    -0.48769    -0.48713
    -0.48623    -0.48534    -0.48487    -0.48419    -0.48416    -0.47612
    -0.47588    -0.47473    -0.47415    -0.47131    -0.47070    -0.46971
    -0.46937    -0.46909    -0.46691    -0.46585    -0.46579    -0.46552
    -0.46449    -0.46232    -0.46179    -0.46147    -0.46077    -0.45963
    -0.45949    -0.45779    -0.45731    -0.45667    -0.45653    -0.45622
    -0.45499    -0.45271    -0.45217    -0.45191    -0.45142    -0.45005
    -0.44830    -0.44660    -0.44652    -0.44566    -0.44561    -0.44551
    -0.44513    -0.44384    -0.44234    -0.43976    -0.43787    -0.43774
    -0.43745    -0.43611    -0.43490    -0.43392    -0.43378    -0.42964
    -0.42836    -0.42582    -0.42467    -0.42331    -0.42260    -0.41911
    -0.41538    -0.41213    -0.40512    -0.40178    -0.39848    -0.39758
    -0.39217    -0.37497    -0.34312    -0.33401    -0.31015    -0.29907
    -0.28950    -0.28466    -0.05831    -0.02199    -0.01124     0.00210
     0.00299     0.01362     0.01479     0.01876     0.02233     0.02471
 
  Peak memory usage:   1020 Mb
  
  end of program scf
   
 Time(scf)  user:     2486.3  user+sys:     2486.3  wallclock:     4148.2
  
  start of program sole
  
    SCRF                   solvation energy
  iteration          Hartrees            kcal/mol
     0               0.0000000            0.0000
     1              -0.0163628          -10.2678
     2              -0.0174253          -10.9345
  
  solvation energy not yet converged... 
  
  Peak memory usage:    812 Mb
  
  end of program sole
   
 Time(sole)  user:        0.1  user+sys:        0.1  wallclock:        0.3
  
  start of program ch
  
  gridpoints used for charge fit        15786
    out of a possible maximum of        15786
  
   Electrostatic potential fitting constrained to reproduce
     total charge:                yes
     dipole moment:               no 
     traceless quadrupole moment: no 
     traceless octapole moment:   no 
  
  Atomic charges from electrostatic potential: 
   
 Atom       C1           C2           C3           C4           C5      
 Charge   -0.09449      0.01991     -0.19799      0.15727     -0.08821
   
 Atom       C6           C7           C8           C9           C10     
 Charge   -0.22236     -0.33263     -0.11525      0.13312     -0.07778
   
 Atom       C11          O12          Si13         C14          C15     
 Charge    0.09896     -0.34900     -0.19882      0.16880      0.21043
   
 Atom       C16          C17          C18          C19          C20     
 Charge    0.19083     -0.19466     -0.37743     -0.25542     -0.04623
   
 Atom       Si21         O22          C23          C24          P25     
 Charge   -0.01187     -0.24271     -0.17961     -0.10454      0.91255
   
 Atom       O26          O27          C28          C29          C30     
 Charge   -0.54947     -0.61155      0.39199      0.20259      0.15004
   
 Atom       C31          C32          C33          C34          C35     
 Charge    0.07346     -0.03243      0.11552     -0.35313     -0.30757
   
 Atom       C36          C37          C38          C39          C40     
 Charge   -0.19411     -0.25317     -0.15821     -0.22479     -0.07765
   
 Atom       C41          C42          C43          C44          C45     
 Charge    0.02511     -0.07770     -0.04047     -0.27434     -0.12674
   
 Atom       C46          C47          C48          C49          C50     
 Charge   -0.08651     -0.15953     -0.09063     -0.13768     -0.16852
   
 Atom       C51          C52          C53          C54          C55     
 Charge   -0.09341     -0.16086     -0.17232     -0.06462     -0.27520
   
 Atom       C56          C57          C58          C59          C60     
 Charge   -0.06120     -0.23415     -0.18333     -0.10628     -0.19717
   
 Atom       C61          C62          C63          C64          C65     
 Charge   -0.09529     -0.16836     -0.08508     -0.14750     -0.16816
   
 Atom       C66          C67          C68          C69          C70     
 Charge    0.11087      0.00312     -0.06687     -0.18383     -0.05640
   
 Atom       N71          S72          O73          O74          C75     
 Charge   -0.44408      0.78955     -0.49850     -0.41698      0.28330
   
 Atom       C76          C77          C78          C79          N80     
 Charge   -0.32784      0.09127     -0.25367      0.14017     -0.26470
   
 Atom       N81          C82          C83          C84          C85     
 Charge   -0.05267     -0.16369     -0.11782     -0.28573      0.07553
   
 Atom       H86          H87          H88          H89          H90     
 Charge    0.10223      0.15672      0.14685      0.17276      0.14023
   
 Atom       H91          H92          H93          H94          H95     
 Charge    0.13817      0.20220      0.15928      0.15474      0.13537
   
 Atom       H96          H97          H98          H99          H100    
 Charge    0.39765      0.17708      0.16181      0.13743      0.13002
   
 Atom       H101         H102         H103         H104         H105    
 Charge    0.11452      0.14222      0.10293      0.08190      0.12043
   
 Atom       H106         H107         H108         H109         H110    
 Charge    0.05306      0.17088      0.04194      0.10780      0.12711
   
 Atom       H111         H112         H113         H114         H115    
 Charge    0.13192      0.13810      0.14193      0.13128      0.14270
   
 Atom       H116         H117         H118         H119         H120    
 Charge    0.14412      0.09220      0.17009      0.12923      0.14397
   
 Atom       H121         H122         H123         H124         H125    
 Charge    0.14223      0.13386      0.15145      0.13473      0.14005
   
 Atom       H126         H127         H128         H129         H130    
 Charge    0.09651      0.15498      0.13726      0.04079      0.10421
   
 Atom       H131         H132         H133         H134         H135    
 Charge    0.15690      0.18817      0.17091      0.11866      0.14336
   
 Atom       H136         H137         H138         H139         H140    
 Charge    0.09473      0.28115      0.21575      0.15903      0.19785
   
 Atom       H141    
 Charge    0.11106
  
  sum of atomic charges:     0.000000
   
 RMS Error   9.70E-04 hartrees
 
  Peak memory usage:    811 Mb
  
  end of program ch
   
 Time(ch)  user:       16.9  user+sys:       16.9  wallclock:       28.1
  
  start of program post
  
  Writing input files for PBF
  Peak memory usage:    758 Mb
  
  end of program post
   
 Time(post)  user:        0.8  user+sys:        0.8  wallclock:        1.7

  start of program pbf

Pbf Version 4.10

Molecular surface area:      784.18875   [A2]
Reaction field energy:       -17.97155   [kT]
  Peak memory usage: 718 Mb

  end of program pbf

 Time(pbf)  user:        9.7  user+sys:        9.8  wallclock:       15.6
  
  start of program solv
  
   number of surface charges from PBF   12964
   sum of surface charges     -0.00032
   
  nuclear repulsion energy.......   17588.009589313 hartrees
  Peak memory usage:    887 Mb
  
  end of program solv
   
 Time(solv)  user:       32.9  user+sys:       32.9  wallclock:       48.5
  
  start of program scf
  
 Energy computed with NOPS off.
  
       i  u  d  i  g                   
       t  p  i  c  r                                 RMS    maximum
       e  d  i  u  i                       energy  density   DIIS  
       r  t  s  t  d       total energy    change  change    error 
  
etot    1  N  N  1  U   -4710.07047805201           4.7E-06  7.9E-05
etot    2  N  N  1  U   -4710.07046572868 -1.2E-05  0.0E+00  0.0E+00
  
  
 Energy components, in hartrees:
   (A)  Total zero-electron terms....   17590.05164003306
   (B)    Nuclear-nuclear............   17588.00958931299
   (C)    Nuclear-solvent............       2.04205072007
   (E)  Total one-electron terms.....  -41518.07545480404
   (F)    Electron-nuclear...........  -46191.31023736951
   (G)    Electron-solvent...........      -2.07949723879
   (H)    Kinetic....................    4675.31427980426
   (I)  Total two-electron terms.....   19217.95334904230
   (J)    Coulomb....................   19791.30095776936
   (K)    Exchange+Correlation.......    -573.34760872705
   (L)  Electronic energy............  -22300.12210576174  (E+I)
   (N)  Total quantum mech. energy...   -4710.07046572868  (A+L)
   (O)  Gas phase energy.............   -4710.03418546878
   (P)  Solution phase energy........   -4710.05174246932  (Q+R+S)
   (Q)    Total solute energy........   -4710.03301920996  (N-C-G)
   (R)    Total solvent energy.......      -0.01872325936  (C/2+G/2)
   (S)    Solute cavity energy.......       0.00000000000
   (U)  Reorganization energy........       0.00116625882  (Q-O)
   (V)  Solvation energy.............      -0.01755700053  (P-O)
  
 SCFE:  Solution phase energy: DFT(m06-2x)      -4710.05174246932 hartrees
        SCF iterations:   2
  
 
 HOMO energy:    -0.25354
 LUMO energy:    -0.05767
 
  Orbital energies (hartrees): 
   -90.16144   -78.18499   -67.00961   -66.99960   -19.67093   -19.67054
   -19.64526   -19.64518   -19.59461   -19.58427   -14.80557   -14.79643
   -14.77889   -10.65398   -10.62602   -10.61681   -10.61614   -10.60675
   -10.59864   -10.59120   -10.58477   -10.58334   -10.57561   -10.57474
   -10.56906   -10.56864   -10.56756   -10.56580   -10.56386   -10.56347
   -10.56338   -10.56202   -10.56129   -10.56036   -10.55938   -10.55922
   -10.55814   -10.55767   -10.55766   -10.55603   -10.55579   -10.55440
   -10.55381   -10.55336   -10.55305   -10.55284   -10.55205   -10.55116
   -10.55096   -10.55069   -10.55044   -10.54992   -10.54979   -10.54939
   -10.54876   -10.54875   -10.54835   -10.54739   -10.54663   -10.54451
   -10.54368   -10.54275   -10.54239   -10.54235   -10.54202   -10.54014
   -10.53959   -10.53936   -10.53752   -10.53738   -10.53728   -10.53721
   -10.53662   -10.53602   -10.53534   -10.53520   -10.53514   -10.53469
   -10.53301   -10.53124   -10.53014   -10.52731   -10.52677   -10.52047
   -10.51916    -8.47258    -6.96392    -6.39463    -6.39374    -6.39305
    -5.54052    -5.53109    -5.08252    -5.08135    -5.07989    -3.85032
    -3.85004    -3.84979    -3.84096    -3.84052    -3.84027    -1.23641
    -1.21081    -1.16556    -1.12269    -1.10023    -1.08768    -1.07508
    -1.05663    -1.03915    -0.97982    -0.96882    -0.96569    -0.94733
    -0.94384    -0.93995    -0.93480    -0.93064    -0.92634    -0.91951
    -0.91912    -0.90944    -0.89482    -0.88848    -0.88577    -0.87087
    -0.85211    -0.85022    -0.84444    -0.83942    -0.83696    -0.83631
    -0.83198    -0.83125    -0.83071    -0.82878    -0.82652    -0.82617
    -0.82334    -0.82176    -0.82145    -0.81945    -0.81715    -0.81237
    -0.79836    -0.79800    -0.74798    -0.73296    -0.73149    -0.70834
    -0.70500    -0.69902    -0.69331    -0.68928    -0.68786    -0.68352
    -0.68046    -0.67485    -0.67381    -0.67214    -0.67166    -0.67009
    -0.66780    -0.66318    -0.66270    -0.66016    -0.65906    -0.65800
    -0.65531    -0.65436    -0.65000    -0.64406    -0.64020    -0.63383
    -0.61662    -0.60832    -0.60826    -0.59857    -0.59530    -0.59487
    -0.58194    -0.57903    -0.57849    -0.57480    -0.57351    -0.57321
    -0.57098    -0.56669    -0.56036    -0.55736    -0.54786    -0.54468
    -0.54034    -0.53770    -0.53601    -0.53330    -0.52804    -0.52563
    -0.52329    -0.51964    -0.51802    -0.51575    -0.51306    -0.51180
    -0.51132    -0.50854    -0.50529    -0.50527    -0.50209    -0.50093
    -0.50003    -0.49678    -0.49586    -0.49562    -0.49504    -0.49311
    -0.49254    -0.49134    -0.48934    -0.48884    -0.48750    -0.48556
    -0.48442    -0.48339    -0.48166    -0.48078    -0.48011    -0.47742
    -0.47400    -0.47106    -0.46903    -0.46649    -0.46421    -0.46362
    -0.46135    -0.45689    -0.45421    -0.44923    -0.44785    -0.44692
    -0.44496    -0.44251    -0.43852    -0.43783    -0.43347    -0.43131
    -0.42686    -0.42557    -0.42393    -0.42101    -0.41896    -0.41670
    -0.41615    -0.41149    -0.41062    -0.40852    -0.40608    -0.40447
    -0.39745    -0.39600    -0.39530    -0.39376    -0.39212    -0.38819
    -0.38662    -0.38498    -0.38456    -0.38371    -0.38033    -0.37983
    -0.37894    -0.37637    -0.37482    -0.37051    -0.36570    -0.35675
    -0.35328    -0.34982    -0.34506    -0.34250    -0.34161    -0.34031
    -0.33720    -0.33398    -0.33293    -0.33122    -0.32944    -0.32580
    -0.32147    -0.31144    -0.30841    -0.30377    -0.30239    -0.30079
    -0.29963    -0.29801    -0.29685    -0.29157    -0.29015    -0.28704
    -0.28520    -0.28392    -0.28050    -0.27887    -0.27715    -0.27577
    -0.27005    -0.25354    -0.05767    -0.02151    -0.01087     0.00250
     0.00333     0.01364     0.01514     0.01880     0.02259     0.02482
 
  Peak memory usage:   1020 Mb
  
  end of program scf
   
 Time(scf)  user:     2419.1  user+sys:     2419.1  wallclock:     3895.0
  
  start of program sole
  
    SCRF                   solvation energy
  iteration          Hartrees            kcal/mol
     0               0.0000000            0.0000
     1              -0.0163628          -10.2678
     2              -0.0174253          -10.9345
     3              -0.0175570          -11.0172
  
  stopping: solvation energy converged
  
  iterations:   3    sfinal:    -11.0172 kcal/mol
  
  Peak memory usage:    812 Mb
  
  end of program sole
   
 Time(sole)  user:        0.1  user+sys:        0.1  wallclock:        0.2
  
  start of program post
  
  Writing input files for PBF
  Peak memory usage:    758 Mb
  
  end of program post
   
 Time(post)  user:        0.8  user+sys:        0.8  wallclock:        1.6

 Total cpu seconds     user:   38544.868   user+sys:   38544.868
  
 Total elapsed time:    62028 seconds

Job Toru-SiPh3-Type-I-E-8-chkp-scan-unrestrained-208-SPE completed on tethys at Fri Mar 10 11:02:29 2017
