Job M06-2X-SPE-Toru-SiPh3-Type-I-Z-1-chkp-unrestrained.out started on tethys at Wed Nov 23 14:04:48 2016
jobid: tethys-0-5835a1ff

  +--------------------------------------------------------------------+
  |  Jaguar version 8.4, release  16                                   |
  |                                                                    |
  |  Copyright Schrodinger, Inc.                                       |
  |  All Rights Reserved.                                              |
  |                                                                    |
  |  The following have contributed to Jaguar (listed alphabetically): |
  |  Mike Beachy, Art Bochevarov, Dale Braden, Yixiang Cao,            |
  |  Chris Cortis, Rich Friesner, Bill Goddard, Hod Greeley,           |
  |  Tom Hughes, Jean-Marc Langlois, Daniel Mainz, Rob Murphy,         |
  |  Dean Philipp, Tom Pollard, Murco Ringnalda.                       |
  |                                                                    |
  |  Use of this program should be acknowledged in publications as:    |
  |                                                                    |
  |  Jaguar, version 8.4, Schrodinger, Inc., New York, NY, 2013.       |
  |                                                                    |
  |  A. D. Bochevarov, E. Harder, T. F. Hughes, J. R. Greenwood,       |
  |  D. A. Braden, D. M. Philipp, D. Rinaldo, M. D. Halls,             |
  |  J. Zhang, R. A. Friesner, "Jaguar: A High-Performance Quantum     |
  |  Chemistry Software Program with Strengths in Life and Materials   |
  |  Sciences", Int. J. Quantum Chem., 2013, 113(18), 2110-2142.       |
  +--------------------------------------------------------------------+
  
  start of program pre
  
  Job name: M06-2X-SPE-Toru-SiPh3-Type-I-Z-1-chkp-unrestrained.out
  Executables used: /usr/local/shared/schrodinger/current/jaguar-v84016/bin/Linux-x86_64
  Temporary files : /home/ab2144/.schrodinger/tmp/M06-2X-SPE-Toru-SiPh3-Type-I-Z-1-chkp-unrestrained.out
  Maestro file (input):  M06-2X-SPE-Toru-SiPh3-Type-I-Z-1-chkp-unrestrained.out.mae
  Maestro file (output): M06-2X-SPE-Toru-SiPh3-Type-I-Z-1-chkp-unrestrained.out.01.mae
  
  
  basis set:             6-31g**         
  net molecular charge:    0
  multiplicity:            1
  
  keygrid settings 
    wispc.....   7.500E-01
    ldens.....   0
    denspc....   7.500E-01
  
   grid     daf set  nls  grid set  Q type
  ------    -------  ---  --------  ------
  coarse       1      1       1        1
  medium       2      2       2        1
  fine         3      2       3        0
  ultrafine    4      2       4        1
  charge       0      1      -1        1
  gradient     5      2       4        1
  density      0      1       0        0
  DFT-fine     0      1     -13        0
  DFT-med.     0      1     -13        0
  DFT-grad     0      1     -13        0
  DFT-der2     0      1       0        0
  DFT-cphf     0      1       0        0
  LMP2-enrg    4      2       4        1
  LMP2-grad    5      2       2        1
  DFT-cphf2    0      1       0        0
  PBF-dens     0      1       0        0
  plotting     0      1       0        0
  
  idftgrdm  100
  ndftgrdm   50    0    0
  idftgrdf  111
  ndftgrdf   85    0    0
  idftgrdg  111
  ndftgrdg   80    3    0
  idftgrdu  433
  ndftgrdu  105    0    0
  idftgrdd  433
  ndftgrdd  105    0    0
  idftgrdc  433
  ndftgrdc   26    0    0
  idftgrdp  433
  ndftgrdp   18    0    0
  
  number of basis functions....         1680
  
 Input geometry:
                                   angstroms
  atom               x                 y                 z
  C1           -2.1549000000      5.2712000000      0.6259000000 
  C2           -2.7178000000      3.9131000000      0.3807000000 
  C3           -2.8918000000      6.2119000000      1.2276000000 
  C4           -3.9631000000      3.6349000000      0.8246000000 
  C5           -1.9205000000      2.8405000000     -0.2915000000 
  C6           -4.7730000000      4.6857000000      1.4839000000 
  C7           -4.5084000000      2.2728000000      0.6910000000 
  C8           -4.2659000000      5.9088000000      1.6682000000 
  C9           -2.3967000000      1.5789000000     -0.3331000000 
  C10          -0.5710000000      3.1291000000     -0.8346000000 
  C11          -3.7766000000      1.2881000000      0.1481000000 
  O12          -1.6399000000      0.5876000000     -0.9023000000 
  Si13         -4.5172000000     -0.4238000000      0.1097000000 
  C14          -0.3677000000      4.0653000000     -1.7881000000 
  C15           0.6001000000      2.4856000000     -0.1742000000 
  C16           1.0041000000      4.5768000000     -2.0262000000 
  C17          -1.4700000000      4.6582000000     -2.5852000000 
  C18           2.0219000000      4.1473000000     -1.2691000000 
  C19           1.2025000000      5.6183000000     -3.0532000000 
  C20           1.8097000000      3.0829000000     -0.2599000000 
  Si21          3.2603000000      2.5571000000      0.7911000000 
  O22           0.4233000000      1.3799000000      0.6279000000 
  C23          -1.2155000000      5.6048000000     -3.4964000000 
  C24           0.1584000000      6.0966000000     -3.7392000000 
  P25          -0.3697000000      0.0851000000     -0.0043000000 
  O26          -0.8058000000     -0.7099000000      1.1949000000 
  N27           0.5340000000     -0.8139000000     -1.0138000000 
  C28          -4.3842000000     -1.1582000000      1.8226000000 
  C29          -6.3084000000     -0.2066000000     -0.3763000000 
  C30          -3.7126000000     -1.5218000000     -1.1657000000 
  C31           3.9180000000      0.9647000000      0.0949000000 
  C32           4.5769000000      3.8691000000      0.7546000000 
  C33           2.8071000000      2.4190000000      2.5925000000 
  C34          -4.8610000000     -2.3890000000      2.0800000000 
  C35          -3.7759000000     -0.3726000000      2.9258000000 
  C36          -7.3098000000     -0.7360000000      0.3492000000 
  C37          -6.6387000000      0.6219000000     -1.5630000000 
  C38          -3.1407000000     -2.6889000000     -0.8215000000 
  C39          -3.7654000000     -1.1398000000     -2.5979000000 
  C40           3.8741000000     -0.1748000000      0.8005000000 
  C41           4.5184000000      0.9584000000     -1.2606000000 
  C42           4.2635000000      5.1316000000      1.0917000000 
  C43           5.9798000000      3.5352000000      0.4061000000 
  C44           3.7197000000      1.9733000000      3.4729000000 
  C45           1.4861000000      2.8803000000      3.0885000000 
  C46          -4.7993000000     -2.9438000000      3.4476000000 
  C47          -4.2759000000     -2.2184000000      4.4420000000 
  C48          -3.7374000000     -0.8713000000      4.1674000000 
  C49          -8.7157000000     -0.5381000000     -0.0615000000 
  C50          -9.0023000000      0.1876000000     -1.1477000000 
  C51          -7.9131000000      0.8035000000     -1.9296000000 
  C52          -2.6311000000     -3.6062000000     -1.8602000000 
  C53          -2.7279000000     -3.2764000000     -3.1520000000 
  C54          -3.3117000000     -1.9772000000     -3.5381000000 
  C55           4.4308000000     -1.4230000000      0.2395000000 
  C56           4.9991000000     -1.4161000000     -0.9713000000 
  C57           5.0436000000     -0.1676000000     -1.7594000000 
  C58           5.2985000000      6.1858000000      1.0750000000 
  C59           6.5581000000      5.8830000000      0.7404000000 
  C60           6.9161000000      4.4922000000      0.3960000000 
  C61           3.3894000000      1.8848000000      4.9103000000 
  C62           2.1834000000      2.2669000000      5.3454000000 
  C63           1.1890000000      2.7968000000      4.3912000000 
  C64           3.2580000000     -3.7464000000      4.3446000000 
  C65           2.6525000000     -4.2770000000      3.2097000000 
  C66           1.8854000000     -3.4626000000      2.3573000000 
  C67           1.7051000000     -2.1112000000      2.6883000000 
  C68           2.2926000000     -1.5918000000      3.8419000000 
  C69           3.0762000000     -2.3988000000      4.6654000000 
  C70           1.2944000000     -4.1149000000      1.1686000000 
  N71           1.2988000000     -3.5405000000     -0.0784000000 
  S72           1.2394000000     -4.5841000000     -1.4463000000 
  O73           0.8667000000     -5.9003000000     -0.9169000000 
  O74           0.4493000000     -3.9284000000     -2.4774000000 
  C75           2.9667000000     -4.6469000000     -1.9870000000 
  C76           3.3120000000     -4.1122000000     -3.2232000000 
  C77           4.6476000000     -4.2496000000     -3.6049000000 
  C78           5.5353000000     -4.8916000000     -2.7441000000 
  C79           5.0635000000     -5.3655000000     -1.5166000000 
  N80           3.7876000000     -5.2495000000     -1.1352000000 
  N81          -1.0892000000     -3.1706000000      2.1460000000 
  C82          -1.1676000000     -3.2412000000      3.4733000000 
  C83          -0.9567000000     -4.5747000000      3.8962000000 
  C84          -0.7025000000     -5.3113000000      2.7559000000 
  C85          -0.6780000000     -4.4125000000      1.6417000000 
  H86          -1.1402000000      5.5127000000      0.3415000000 
  H87          -2.4767000000      7.1958000000      1.4046000000 
  H88          -5.7783000000      4.4664000000      1.8218000000 
  H89          -5.5031000000      2.0729000000      1.0719000000 
  H90          -4.8574000000      6.6754000000      2.1517000000 
  H91          -2.4904000000      4.3198000000     -2.4563000000 
  H92           3.0147000000      4.5490000000     -1.4276000000 
  H93           2.1940000000      6.0070000000     -3.2530000000 
  H94          -2.0308000000      6.0198000000     -4.0750000000 
  H95           0.3176000000      6.8623000000     -4.4876000000 
  H96          -5.3105000000     -2.9843000000      1.2949000000 
  H97          -3.3607000000      0.6086000000      2.7419000000 
  H98          -7.1190000000     -1.3098000000      1.2418000000 
  H99          -5.8558000000      1.1156000000     -2.1213000000 
  H100         -3.0688000000     -2.9981000000      0.2084000000 
  H101         -4.1593000000     -0.1800000000     -2.8957000000 
  H102          3.4453000000     -0.1934000000      1.7875000000 
  H103          4.5441000000      1.8679000000     -1.8479000000 
  H104          3.2502000000      5.3958000000      1.3692000000 
  H105          6.2644000000      2.5181000000      0.1764000000 
  H106          4.7046000000      1.6665000000      3.1427000000 
  H107          0.7611000000      3.3116000000      2.4131000000 
  H108         -5.1859000000     -3.9355000000      3.6437000000 
  H109         -4.2321000000     -2.6222000000      5.4451000000 
  H110         -3.2963000000     -0.2953000000      4.9705000000 
  H111         -9.5132000000     -0.9825000000      0.5199000000 
  H112        -10.0317000000      0.3342000000     -1.4484000000 
  H113         -8.1489000000      1.4158000000     -2.7904000000 
  H114         -2.1960000000     -4.5547000000     -1.5740000000 
  H115         -2.3613000000     -3.9511000000     -3.9147000000 
  H116         -3.3531000000     -1.6957000000     -4.5823000000 
  H117          4.3881000000     -2.3388000000      0.8149000000 
  H118          5.4201000000     -2.3243000000     -1.3786000000 
  H119          5.4881000000     -0.1698000000     -2.7460000000 
  H120          5.0344000000      7.2031000000      1.3332000000 
  H121          7.3178000000      6.6538000000      0.7280000000 
  H122          7.9402000000      4.2475000000      0.1453000000 
  H123          4.1230000000      1.5028000000      5.6083000000 
  H124          1.9379000000      2.1989000000      6.3973000000 
  H125          0.2259000000      3.1351000000      4.7511000000 
  H126          3.8663000000     -4.3836000000      4.9792000000 
  H127          2.7887000000     -5.3270000000      2.9660000000 
  H128          1.0957000000     -1.4649000000      2.0665000000 
  H129          2.1322000000     -0.5480000000      4.0876000000 
  H130          3.5390000000     -1.9829000000      5.5554000000 
  H131          1.5210000000     -5.1731000000      1.1003000000 
  H132          2.5786000000     -3.5935000000     -3.8253000000 
  H133          4.9857000000     -3.8508000000     -4.5558000000 
  H134          6.5808000000     -5.0145000000     -3.0067000000 
  H135          5.7332000000     -5.8550000000     -0.8138000000 
  H136         -1.0846000000     -2.2605000000      1.6263000000 
  H137         -1.3312000000     -2.3536000000      4.0672000000 
  H138         -0.9794000000     -4.9197000000      4.9197000000 
  H139         -0.4995000000     -6.3716000000      2.6889000000 
  H140         -0.9565000000     -4.6925000000      0.6354000000 
  S141          1.2958000000     -0.3561000000     -2.3552000000 
  O142          2.3228000000     -1.3624000000     -2.6551000000 
  C143          0.1019000000     -0.5069000000     -3.7912000000 
  O144          1.6492000000      1.0704000000     -2.4106000000 
  F145         -0.2694000000     -1.7684000000     -3.9990000000 
  F146         -0.9840000000      0.2497000000     -3.6003000000 
  F147          0.7379000000     -0.0667000000     -4.8879000000 
  H148          1.1218000000     -2.5358000000     -0.2931000000 
   
  principal moments of inertia:
        amu*angstrom^2:    21611.82580    24168.58024    30554.44572
                g*cm^2: 3.58872766E-36 4.01328667E-36 5.07368445E-36
   
  rotational constants:
               cm^(-1):      0.00078002      0.00069750      0.00055172
                   GHz:      0.02338437      0.02091058      0.01654028
   
  Molecular weight:    1308.28 amu
   
  Stoichiometry: Si2C73PN4H56S2O7F3
  Molecular Point Group: C1      
  Point Group used: C1
  
  nuclear repulsion energy.......   20931.899239237 hartrees
 
 Non-default options chosen:
   SCF calculation type: DFT(m06-2x)                 
   DFT=M06-2X
   Solvation energy will be computed using PBF
     -solute cavity energy will not be included
     -surface area terms will not be included
   Highest accuracy cutoffs used in SCF
   Solvent: other                                                           
   Internal dielectric constant:    1.000
   Continuum dielectric constant:   2.380
   Solvent probe molecule radius:   2.760
  
 Temporary integer options set:
     73=  2
  
  atom       vdw   vdw2    cov     mass  grid  daf  charge   basis
  C1        1.949  1.900  0.770   12.000    Y    Y      Y    6-31g**
  C2        1.949  1.900  0.770   12.000    Y    Y      Y    6-31g**
  C3        1.949  1.900  0.770   12.000    Y    Y      Y    6-31g**
  C4        1.949  1.900  0.770   12.000    Y    Y      Y    6-31g**
  C5        1.949  1.900  0.770   12.000    Y    Y      Y    6-31g**
  C6        1.949  1.900  0.770   12.000    Y    Y      Y    6-31g**
  C7        1.949  1.900  0.770   12.000    Y    Y      Y    6-31g**
  C8        1.949  1.900  0.770   12.000    Y    Y      Y    6-31g**
  C9        1.949  1.900  0.770   12.000    Y    Y      Y    6-31g**
  C10       1.949  1.900  0.770   12.000    Y    Y      Y    6-31g**
  C11       1.949  1.900  0.770   12.000    Y    Y      Y    6-31g**
  O12       1.702  1.600  0.730   15.995    Y    Y      Y    6-31g**
  Si13      2.217  2.147  1.110   27.977    Y    Y      Y    6-31g**
  C14       1.949  1.900  0.770   12.000    Y    Y      Y    6-31g**
  C15       1.949  1.900  0.770   12.000    Y    Y      Y    6-31g**
  C16       1.949  1.900  0.770   12.000    Y    Y      Y    6-31g**
  C17       1.949  1.900  0.770   12.000    Y    Y      Y    6-31g**
  C18       1.949  1.900  0.770   12.000    Y    Y      Y    6-31g**
  C19       1.949  1.900  0.770   12.000    Y    Y      Y    6-31g**
  C20       1.949  1.900  0.770   12.000    Y    Y      Y    6-31g**
  Si21      2.217  2.147  1.110   27.977    Y    Y      Y    6-31g**
  O22       1.702  1.600  0.730   15.995    Y    Y      Y    6-31g**
  C23       1.949  1.900  0.770   12.000    Y    Y      Y    6-31g**
  C24       1.949  1.900  0.770   12.000    Y    Y      Y    6-31g**
  P25       2.147  2.074  1.060   30.974    Y    Y      Y    6-31g**
  O26       1.702  1.600  0.730   15.995    Y    Y      Y    6-31g**
  N27       1.831  1.600  0.750   14.003    Y    Y      Y    6-31g**
  C28       1.949  1.900  0.770   12.000    Y    Y      Y    6-31g**
  C29       1.949  1.900  0.770   12.000    Y    Y      Y    6-31g**
  C30       1.949  1.900  0.770   12.000    Y    Y      Y    6-31g**
  C31       1.949  1.900  0.770   12.000    Y    Y      Y    6-31g**
  C32       1.949  1.900  0.770   12.000    Y    Y      Y    6-31g**
  C33       1.949  1.900  0.770   12.000    Y    Y      Y    6-31g**
  C34       1.949  1.900  0.770   12.000    Y    Y      Y    6-31g**
  C35       1.949  1.900  0.770   12.000    Y    Y      Y    6-31g**
  C36       1.949  1.900  0.770   12.000    Y    Y      Y    6-31g**
  C37       1.949  1.900  0.770   12.000    Y    Y      Y    6-31g**
  C38       1.949  1.900  0.770   12.000    Y    Y      Y    6-31g**
  C39       1.949  1.900  0.770   12.000    Y    Y      Y    6-31g**
  C40       1.949  1.900  0.770   12.000    Y    Y      Y    6-31g**
  C41       1.949  1.900  0.770   12.000    Y    Y      Y    6-31g**
  C42       1.949  1.900  0.770   12.000    Y    Y      Y    6-31g**
  C43       1.949  1.900  0.770   12.000    Y    Y      Y    6-31g**
  C44       1.949  1.900  0.770   12.000    Y    Y      Y    6-31g**
  C45       1.949  1.900  0.770   12.000    Y    Y      Y    6-31g**
  C46       1.949  1.900  0.770   12.000    Y    Y      Y    6-31g**
  C47       1.949  1.900  0.770   12.000    Y    Y      Y    6-31g**
  C48       1.949  1.900  0.770   12.000    Y    Y      Y    6-31g**
  C49       1.949  1.900  0.770   12.000    Y    Y      Y    6-31g**
  C50       1.949  1.900  0.770   12.000    Y    Y      Y    6-31g**
  C51       1.949  1.900  0.770   12.000    Y    Y      Y    6-31g**
  C52       1.949  1.900  0.770   12.000    Y    Y      Y    6-31g**
  C53       1.949  1.900  0.770   12.000    Y    Y      Y    6-31g**
  C54       1.949  1.900  0.770   12.000    Y    Y      Y    6-31g**
  C55       1.949  1.900  0.770   12.000    Y    Y      Y    6-31g**
  C56       1.949  1.900  0.770   12.000    Y    Y      Y    6-31g**
  C57       1.949  1.900  0.770   12.000    Y    Y      Y    6-31g**
  C58       1.949  1.900  0.770   12.000    Y    Y      Y    6-31g**
  C59       1.949  1.900  0.770   12.000    Y    Y      Y    6-31g**
  C60       1.949  1.900  0.770   12.000    Y    Y      Y    6-31g**
  C61       1.949  1.900  0.770   12.000    Y    Y      Y    6-31g**
  C62       1.949  1.900  0.770   12.000    Y    Y      Y    6-31g**
  C63       1.949  1.900  0.770   12.000    Y    Y      Y    6-31g**
  C64       1.949  1.900  0.770   12.000    Y    Y      Y    6-31g**
  C65       1.949  1.900  0.770   12.000    Y    Y      Y    6-31g**
  C66       1.949  1.900  0.770   12.000    Y    Y      Y    6-31g**
  C67       1.949  1.900  0.770   12.000    Y    Y      Y    6-31g**
  C68       1.949  1.900  0.770   12.000    Y    Y      Y    6-31g**
  C69       1.949  1.900  0.770   12.000    Y    Y      Y    6-31g**
  C70       1.949  1.900  0.770   12.000    Y    Y      Y    6-31g**
  N71       1.831  1.600  0.750   14.003    Y    Y      Y    6-31g**
  S72       2.070  1.900  1.020   31.972    Y    Y      Y    6-31g**
  O73       1.702  1.600  0.730   15.995    Y    Y      Y    6-31g**
  O74       1.702  1.600  0.730   15.995    Y    Y      Y    6-31g**
  C75       1.949  1.900  0.770   12.000    Y    Y      Y    6-31g**
  C76       1.949  1.900  0.770   12.000    Y    Y      Y    6-31g**
  C77       1.949  1.900  0.770   12.000    Y    Y      Y    6-31g**
  C78       1.949  1.900  0.770   12.000    Y    Y      Y    6-31g**
  C79       1.949  1.900  0.770   12.000    Y    Y      Y    6-31g**
  N80       1.831  1.600  0.750   14.003    Y    Y      Y    6-31g**
  N81       1.831  1.600  0.750   14.003    Y    Y      Y    6-31g**
  C82       1.949  1.900  0.770   12.000    Y    Y      Y    6-31g**
  C83       1.949  1.900  0.770   12.000    Y    Y      Y    6-31g**
  C84       1.949  1.900  0.770   12.000    Y    Y      Y    6-31g**
  C85       1.949  1.900  0.770   12.000    Y    Y      Y    6-31g**
  H86       1.597  1.150  0.320    1.008    Y    Y      Y    6-31g**
  H87       1.597  1.150  0.320    1.008    Y    Y      Y    6-31g**
  H88       1.597  1.150  0.320    1.008    Y    Y      Y    6-31g**
  H89       1.597  1.150  0.320    1.008    Y    Y      Y    6-31g**
  H90       1.597  1.150  0.320    1.008    Y    Y      Y    6-31g**
  H91       1.597  1.150  0.320    1.008    Y    Y      Y    6-31g**
  H92       1.597  1.150  0.320    1.008    Y    Y      Y    6-31g**
  H93       1.597  1.150  0.320    1.008    Y    Y      Y    6-31g**
  H94       1.597  1.150  0.320    1.008    Y    Y      Y    6-31g**
  H95       1.597  1.150  0.320    1.008    Y    Y      Y    6-31g**
  H96       1.597  1.150  0.320    1.008    Y    Y      Y    6-31g**
  H97       1.597  1.150  0.320    1.008    Y    Y      Y    6-31g**
  H98       1.597  1.150  0.320    1.008    Y    Y      Y    6-31g**
  H99       1.597  1.150  0.320    1.008    Y    Y      Y    6-31g**
  H100      1.597  1.150  0.320    1.008    Y    Y      Y    6-31g**
  H101      1.597  1.150  0.320    1.008    Y    Y      Y    6-31g**
  H102      1.597  1.150  0.320    1.008    Y    Y      Y    6-31g**
  H103      1.597  1.150  0.320    1.008    Y    Y      Y    6-31g**
  H104      1.597  1.150  0.320    1.008    Y    Y      Y    6-31g**
  H105      1.597  1.150  0.320    1.008    Y    Y      Y    6-31g**
  H106      1.597  1.150  0.320    1.008    Y    Y      Y    6-31g**
  H107      1.597  1.150  0.320    1.008    Y    Y      Y    6-31g**
  H108      1.597  1.150  0.320    1.008    Y    Y      Y    6-31g**
  H109      1.597  1.150  0.320    1.008    Y    Y      Y    6-31g**
  H110      1.597  1.150  0.320    1.008    Y    Y      Y    6-31g**
  H111      1.597  1.150  0.320    1.008    Y    Y      Y    6-31g**
  H112      1.597  1.150  0.320    1.008    Y    Y      Y    6-31g**
  H113      1.597  1.150  0.320    1.008    Y    Y      Y    6-31g**
  H114      1.597  1.150  0.320    1.008    Y    Y      Y    6-31g**
  H115      1.597  1.150  0.320    1.008    Y    Y      Y    6-31g**
  H116      1.597  1.150  0.320    1.008    Y    Y      Y    6-31g**
  H117      1.597  1.150  0.320    1.008    Y    Y      Y    6-31g**
  H118      1.597  1.150  0.320    1.008    Y    Y      Y    6-31g**
  H119      1.597  1.150  0.320    1.008    Y    Y      Y    6-31g**
  H120      1.597  1.150  0.320    1.008    Y    Y      Y    6-31g**
  H121      1.597  1.150  0.320    1.008    Y    Y      Y    6-31g**
  H122      1.597  1.150  0.320    1.008    Y    Y      Y    6-31g**
  H123      1.597  1.150  0.320    1.008    Y    Y      Y    6-31g**
  H124      1.597  1.150  0.320    1.008    Y    Y      Y    6-31g**
  H125      1.597  1.150  0.320    1.008    Y    Y      Y    6-31g**
  H126      1.597  1.150  0.320    1.008    Y    Y      Y    6-31g**
  H127      1.597  1.150  0.320    1.008    Y    Y      Y    6-31g**
  H128      1.597  1.150  0.320    1.008    Y    Y      Y    6-31g**
  H129      1.597  1.150  0.320    1.008    Y    Y      Y    6-31g**
  H130      1.597  1.150  0.320    1.008    Y    Y      Y    6-31g**
  H131      1.597  1.150  0.320    1.008    Y    Y      Y    6-31g**
  H132      1.597  1.150  0.320    1.008    Y    Y      Y    6-31g**
  H133      1.597  1.150  0.320    1.008    Y    Y      Y    6-31g**
  H134      1.597  1.150  0.320    1.008    Y    Y      Y    6-31g**
  H135      1.597  1.150  0.320    1.008    Y    Y      Y    6-31g**
  H136      1.597  1.150  0.320    1.008    Y    Y      Y    6-31g**
  H137      1.597  1.150  0.320    1.008    Y    Y      Y    6-31g**
  H138      1.597  1.150  0.320    1.008    Y    Y      Y    6-31g**
  H139      1.597  1.150  0.320    1.008    Y    Y      Y    6-31g**
  H140      1.597  1.150  0.320    1.008    Y    Y      Y    6-31g**
  S141      2.070  1.900  1.020   31.972    Y    Y      Y    6-31g**
  O142      1.702  1.600  0.730   15.995    Y    Y      Y    6-31g**
  C143      1.949  1.900  0.770   12.000    Y    Y      Y    6-31g**
  O144      1.702  1.600  0.730   15.995    Y    Y      Y    6-31g**
  F145      1.736  1.682  0.720   18.998    Y    Y      Y    6-31g**
  F146      1.736  1.682  0.720   18.998    Y    Y      Y    6-31g**
  F147      1.736  1.682  0.720   18.998    Y    Y      Y    6-31g**
  H148      1.597  1.150  0.320    1.008    Y    Y      Y    6-31g**
  
  Peak memory usage:    528 Mb
  
  end of program pre
   
 Time(pre)  user:        0.0  user+sys:        0.0  wallclock:        0.4
  
  start of program onee
  
  smallest eigenvalue of S:    2.333E-04
  number of canonical orbitals.....         1674
  Peak memory usage:    707 Mb
  
  end of program onee
   
 Time(onee)  user:       32.0  user+sys:       33.0  wallclock:       41.8
  
  start of program hfig
  
  initial wavefunction generated automatically from atomic wavefunctions
 
  Irreducible     Total no   No of occupied orbitals 
  representation  orbitals   Shell_1  Shell_2    ...
  No Symm         1674        340
  ------------------------
  Orbital occupation/shell    1.000
 
  Peak memory usage:    646 Mb
  
  end of program hfig
   
 Time(hfig)  user:       48.0  user+sys:       48.0  wallclock:       67.9
  
  start of program probe
  
  Peak memory usage:    640 Mb
  
  end of program probe
   
 Time(probe)  user:       29.0  user+sys:       29.0  wallclock:       39.1
  
  start of program grid
  
  
   grid     grid set  grid #  grid sym
  ------    --------  ------  --------
  coarse        0        0        1
  medium        2        1        1
  fine          0        0        1
  ultrafine     4        2        1
  charge       -1        3        1
  gradient      4        2        1
  density       0        0        1
  DFT-fine    -13        4        1
  DFT-med.    -13        4        1
  DFT-grad    -13        4        1
  DFT-der2      0        0        1
  DFT-cphf      0        0        1
  LMP2-enrg     4        2        1
  LMP2-grad     2        1        1
  DFT-cphf2     0        0        1
  PBF-dens      0        0        1
  plotting      0        0        1
  
   
  number of gridpoints: 
     atom        C1       C2       C3       C4       C5       C6       C7
  grid # 1       96      101       94      101      100       96       92
  grid # 2      338      359      336      366      356      335      333
  grid # 3       27       24       40       41       13       46       16
  grid # 4    48124    48124    48124    48124    48124    48124    48124
   
  number of gridpoints: 
     atom        C8       C9      C10      C11      O12     Si13      C14
  grid # 1       94       97      100      100      111      472      101
  grid # 2      335      361      358      358      430      472      358
  grid # 3       47       20       11       10       30        7       22
  grid # 4    48124    48124    48124    48124    47716    38542    48124
   
  number of gridpoints: 
     atom       C15      C16      C17      C18      C19      C20     Si21
  grid # 1       97      101       96       94       97      100      471
  grid # 2      352      365      336      331      338      360      471
  grid # 3        6       32       28       17       41        9        8
  grid # 4    48124    48124    48124    48124    48124    48124    38542
   
  number of gridpoints: 
     atom       O22      C23      C24      P25      O26      N27      C28
  grid # 1      113       94       94      442      117      111      101
  grid # 2      439      339      338      442      437      402      358
  grid # 3       42       39       45        6       51       26       12
  grid # 4    47716    48124    48124    38640    47716    47928    48124
   
  number of gridpoints: 
     atom       C29      C30      C31      C32      C33      C34      C35
  grid # 1      101      100      101      100      101       92       97
  grid # 2      360      360      356      359      360      334      336
  grid # 3       20       20        8       11       12       11       24
  grid # 4    48124    48124    48124    48124    48124    48124    48124
   
  number of gridpoints: 
     atom       C36      C37      C38      C39      C40      C41      C42
  grid # 1       93       94       93       97       92       93       92
  grid # 2      338      336      335      336      334      328      335
  grid # 3       32       29       22       27       17        7       22
  grid # 4    48124    48124    48124    48124    48124    48124    48124
   
  number of gridpoints: 
     atom       C43      C44      C45      C46      C47      C48      C49
  grid # 1       96       92       96       92       94       94       94
  grid # 2      339      334      336      333      331      331      336
  grid # 3       29       19       25       24       29       29       45
  grid # 4    48124    48124    48124    48124    48124    48124    48124
   
  number of gridpoints: 
     atom       C50      C51      C52      C53      C54      C55      C56
  grid # 1       94       95       94       94       94       93       93
  grid # 2      336      336      334      332      333      334      331
  grid # 3       47       43       33       30       30       27       25
  grid # 4    48124    48124    48124    48124    48124    48124    48124
   
  number of gridpoints: 
     atom       C57      C58      C59      C60      C61      C62      C63
  grid # 1       93       93       94       94       93       93       94
  grid # 2      331      335      336      336      330      334      336
  grid # 3       18       39       45       46       28       28       35
  grid # 4    48124    48124    48124    48124    48124    48124    48124
   
  number of gridpoints: 
     atom       C64      C65      C66      C67      C68      C69      C70
  grid # 1       95       95       98       95       95       96       91
  grid # 2      331      333      355      326      329      331      322
  grid # 3       32       19        8        9       17       33        6
  grid # 4    48124    48124    48124    48124    48124    48124    48124
   
  number of gridpoints: 
     atom       N71      S72      O73      O74      C75      C76      C77
  grid # 1       98      441      121      119       98       96       96
  grid # 2      354      441      485      470      359      328      329
  grid # 3       11       12      227       78       30       33       29
  grid # 4    47928    48492    47716    47716    48124    48124    48124
   
  number of gridpoints: 
     atom       C78      C79      N80      N81      C82      C83      C84
  grid # 1       96       96      112       96       94       93       94
  grid # 2      328      337      417      347      329      330      332
  grid # 3       30       29       88       13       13       21       21
  grid # 4    48124    48124    47928    47928    48124    48124    48124
   
  number of gridpoints: 
     atom       C85      H86      H87      H88      H89      H90      H91
  grid # 1       92      111      118      118      112      118      113
  grid # 2      324      431      451      446      428      453      435
  grid # 3        7      210      415      360      201      425      254
  grid # 4    48124    48426    48426    48426    48426    48426    48426
   
  number of gridpoints: 
     atom       H92      H93      H94      H95      H96      H97      H98
  grid # 1      110      117      118      118      112      111      110
  grid # 2      425      443      449      451      424      427      431
  grid # 3      170      362      411      418      217      196      224
  grid # 4    48426    48426    48426    48426    48426    48426    48426
   
  number of gridpoints: 
     atom       H99     H100     H101     H102     H103     H104     H105
  grid # 1      108      106      110      106      111      112      111
  grid # 2      425      413      419      413      432      438      433
  grid # 3      197       93      186       84      217      259      225
  grid # 4    48426    48426    48426    48426    48426    48426    48426
   
  number of gridpoints: 
     atom      H106     H107     H108     H109     H110     H111     H112
  grid # 1      113      111      117      117      117      118      118
  grid # 2      436      421      451      451      448      452      453
  grid # 3      250      174      388      376      360      417      425
  grid # 4    48426    48426    48426    48426    48426    48426    48426
   
  number of gridpoints: 
     atom      H113     H114     H115     H116     H117     H118     H119
  grid # 1      118      110      115      117      114      112      117
  grid # 2      453      430      445      446      437      431      450
  grid # 3      421      218      344      364      237      216      363
  grid # 4    48426    48426    48426    48426    48426    48426    48426
   
  number of gridpoints: 
     atom      H120     H121     H122     H123     H124     H125     H126
  grid # 1      118      118      118      117      117      118      118
  grid # 2      452      453      453      447      452      451      449
  grid # 3      414      424      423      355      405      371      411
  grid # 4    48426    48426    48426    48426    48426    48426    48426
   
  number of gridpoints: 
     atom      H127     H128     H129     H130     H131     H132     H133
  grid # 1      111      104      110      117      104      111      117
  grid # 2      438      408      425      446      409      432      453
  grid # 3      286       68      159      362      107      220      402
  grid # 4    48426    48426    48426    48426    48426    48426    48426
   
  number of gridpoints: 
     atom      H134     H135     H136     H137     H138     H139     H140
  grid # 1      117      117      101      112      116      116      107
  grid # 2      451      453      396      433      458      455      418
  grid # 3      407      423       51      207      416      390      112
  grid # 4    48426    48426    48426    48426    48426    48426    48426
   
  number of gridpoints: 
     atom      S141     O142     C143     O144     F145     F146     F147
  grid # 1      434      117       90      118      514      521      537
  grid # 2      434      471      319      478      514      521      537
  grid # 3       10       67        7       94       94      121      300
  grid # 4    48492    47716    48124    47716    47062    47062    47062
   
  number of gridpoints: 
     atom      H148    total
  grid # 1      103    18387
  grid # 2      404    57842
  grid # 3       68    19269
  grid # 4    48426  7104526
   
  Peak memory usage:    671 Mb
  
  end of program grid
   
 Time(grid)  user:     1054.0  user+sys:     1061.0  wallclock:     3655.8
  
  start of program rwr
  
  dpptrf failed in rinv with info = 274
  switching to SVD for RwR matrix   2 for grid  2
  Peak memory usage:    661 Mb
  
  end of program rwr
   
 Time(rwr)  user:       80.0  user+sys:       88.0  wallclock:      450.9
  
  start of program scf
  
 number of electrons..........        680
 number of alpha electrons....        340
 number of beta electrons.....        340
 number of orbitals, total....       1674
 number of doubly-occ'd orbs..        340
 number of open shell orbs....          0
 number of occupied orbitals..        340
 number of virtual orbitals...       1334
 number of hamiltonians.......          1
 number of shells.............          1
 SCF type: DFT=M06-2X
  
       i  u  d  i  g                   
       t  p  i  c  r                                 RMS    maximum
       e  d  i  u  i                       energy  density   DIIS  
       r  t  s  t  d       total energy    change  change    error 
  
etot    1  N  N  1  U   -5562.67256751099           4.2E-03  1.1E-01
etot    2  N  Y  1  U   -5522.37727354276 -4.0E+01  1.6E-02  1.4E-01
etot    3  N  Y  1  U   -5304.84903976656 -2.2E+02  1.5E-02  4.7E-01
etot    4  N  Y  1  U   -5570.80672036499  2.7E+02  2.4E-03  8.4E-02
etot    5  N  Y  1  U   -5573.15062661196  2.3E+00  1.5E-03  4.0E-02
etot    6  N  Y  1  U   -5572.97942202710 -1.7E-01  9.8E-04  4.0E-02
etot    7  N  Y  1  U   -5575.46948720330  2.5E+00  2.2E-04  8.0E-03
etot    8  N  Y  1  U   -5575.54327550542  7.4E-02  7.8E-05  3.1E-03
etot    9  N  Y  1  U   -5575.54951167421  6.2E-03  3.3E-05  1.4E-03
etot   10  N  Y  1  U   -5575.55135762663  1.8E-03  1.2E-05  4.2E-04
etot   11  N  Y  1  U   -5575.55157604582  2.2E-04  6.6E-06  2.6E-04
etot   12  N  Y  1  U   -5575.55164802208  7.2E-05  3.9E-06  1.2E-04
etot   13  N  N  1  U   -5575.55166469860  1.7E-05  0.0E+00  0.0E+00
  
  
 Energy components, in hartrees:
   (A)  Nuclear repulsion............   20931.89923923707
   (E)  Total one-electron terms.....  -49393.38155830836
   (F)    Electron-nuclear...........  -54929.45759113890
   (H)    Kinetic....................    5536.07603283051
   (I)  Total two-electron terms.....   22885.93065437269
   (J)    Coulomb....................   23537.19697367631
   (K)    Exchange+Correlation.......    -651.26631930362
   (L)  Electronic energy............  -26507.45090393567  (E+I)
   (M)  -V/T.........................       2.00713061592  (-(A+F+I)/H)
   (N)  Total energy.................   -5575.55166469860  (A+L)
  
 SCFE: SCF energy: DFT(m06-2x)     -5575.55166469860 hartrees   iterations:  13
  
 
 HOMO energy:    -0.24360
 LUMO energy:    -0.06606
 
  Orbital energies (hartrees): 
   -90.16922   -90.13469   -78.20865   -67.00827   -67.00026   -25.26970
   -25.26968   -25.26799   -19.69058   -19.68521   -19.65138   -19.64978
   -19.60673   -19.60654   -19.60648   -14.82565   -14.81664   -14.79186
   -14.73795   -10.78564   -10.66169   -10.63024   -10.62113   -10.61790
   -10.61772   -10.60999   -10.60670   -10.59001   -10.58412   -10.58373
   -10.58367   -10.58342   -10.57436   -10.57214   -10.56999   -10.56881
   -10.56747   -10.56592   -10.56448   -10.56099   -10.56093   -10.55997
   -10.55895   -10.55801   -10.55775   -10.55765   -10.55519   -10.55321
   -10.55263   -10.55170   -10.55166   -10.55087   -10.55046   -10.54980
   -10.54922   -10.54808   -10.54733   -10.54717   -10.54706   -10.54678
   -10.54659   -10.54529   -10.54497   -10.54481   -10.54478   -10.54459
   -10.54451   -10.54374   -10.54358   -10.54354   -10.54239   -10.54170
   -10.54139   -10.54006   -10.53942   -10.53921   -10.53724   -10.53487
   -10.53302   -10.53294   -10.53265   -10.53251   -10.53162   -10.53156
   -10.53074   -10.52988   -10.52965   -10.52942   -10.52941   -10.52507
   -10.52351   -10.51731    -8.47973    -8.44337    -6.98783    -6.40202
    -6.40105    -6.40000    -6.36527    -6.36484    -6.36464    -5.53928
    -5.53171    -5.10608    -5.10556    -5.10370    -3.84915    -3.84874
    -3.84851    -3.84145    -3.84130    -3.84090    -1.43699    -1.34642
    -1.34401    -1.24513    -1.22370    -1.19935    -1.18204    -1.13328
    -1.11723    -1.08903    -1.08649    -1.08324    -1.06094    -0.98021
    -0.97461    -0.96816    -0.96040    -0.94980    -0.94130    -0.94026
    -0.93634    -0.92814    -0.92545    -0.92480    -0.91802    -0.90420
    -0.90344    -0.89662    -0.88355    -0.88087    -0.85540    -0.84838
    -0.84713    -0.84450    -0.84073    -0.83917    -0.83336    -0.83264
    -0.83027    -0.82883    -0.82753    -0.82481    -0.82290    -0.82175
    -0.82018    -0.81601    -0.81550    -0.81289    -0.80778    -0.80096
    -0.79364    -0.76216    -0.75022    -0.73865    -0.71690    -0.71236
    -0.70315    -0.69964    -0.69677    -0.69618    -0.69277    -0.68784
    -0.68497    -0.68152    -0.67588    -0.67553    -0.67367    -0.67253
    -0.67042    -0.66953    -0.66594    -0.66565    -0.66327    -0.66030
    -0.65908    -0.65776    -0.65516    -0.65514    -0.65095    -0.64855
    -0.64251    -0.64241    -0.63300    -0.62136    -0.61892    -0.60731
    -0.60591    -0.59958    -0.59487    -0.58235    -0.57990    -0.57810
    -0.57670    -0.57270    -0.57155    -0.57063    -0.56836    -0.56699
    -0.56488    -0.55791    -0.55496    -0.54681    -0.54455    -0.54207
    -0.53960    -0.53750    -0.53720    -0.53592    -0.53247    -0.53204
    -0.53092    -0.52363    -0.51986    -0.51823    -0.51770    -0.51482
    -0.51281    -0.51015    -0.50919    -0.50764    -0.50742    -0.50694
    -0.50413    -0.50189    -0.49961    -0.49956    -0.49877    -0.49877
    -0.49681    -0.49461    -0.49317    -0.49247    -0.49183    -0.49086
    -0.48992    -0.48768    -0.48654    -0.48535    -0.48345    -0.48189
    -0.48104    -0.48078    -0.47928    -0.47923    -0.47855    -0.47778
    -0.47538    -0.46990    -0.46778    -0.46569    -0.46183    -0.46113
    -0.46045    -0.45148    -0.44914    -0.44727    -0.44490    -0.44435
    -0.44290    -0.43949    -0.43795    -0.42923    -0.42805    -0.42665
    -0.42517    -0.42302    -0.42204    -0.41864    -0.41757    -0.41584
    -0.41543    -0.41072    -0.40927    -0.40653    -0.40331    -0.39918
    -0.39841    -0.39791    -0.39715    -0.39317    -0.39248    -0.39111
    -0.38921    -0.38811    -0.38501    -0.38420    -0.38283    -0.37726
    -0.37654    -0.37479    -0.37162    -0.36756    -0.36682    -0.36238
    -0.35680    -0.34952    -0.34812    -0.34674    -0.34380    -0.34340
    -0.34032    -0.33753    -0.33709    -0.33526    -0.33407    -0.33019
    -0.32715    -0.32380    -0.31916    -0.31769    -0.31444    -0.30596
    -0.30467    -0.30280    -0.29824    -0.29701    -0.29660    -0.29443
    -0.29225    -0.28712    -0.28412    -0.28380    -0.28190    -0.27758
    -0.27729    -0.27307    -0.26505    -0.24360    -0.06606    -0.01907
    -0.01224     0.00013     0.00075     0.01394     0.01555     0.01657
     0.01833     0.02208
 
  Peak memory usage:    862 Mb
  
  end of program scf
   
 Time(scf)  user:    32829.0  user+sys:    32997.0  wallclock:    64008.6
  
  start of program ch
  
  gridpoints used for charge fit        16700
    out of a possible maximum of        19269
  
   Electrostatic potential fitting constrained to reproduce
     total charge:                yes
     dipole moment:               no 
     traceless quadrupole moment: no 
     traceless octapole moment:   no 
  
  Atomic charges from electrostatic potential: 
   
 Atom       C1           C2           C3           C4           C5      
 Charge   -0.01827     -0.11808     -0.22401      0.27843      0.15288
   
 Atom       C6           C7           C8           C9           C10     
 Charge   -0.26463     -0.43323     -0.07592     -0.02903     -0.36015
   
 Atom       C11          O12          Si13         C14          C15     
 Charge    0.18230     -0.13576     -0.15483      0.12051      0.37590
   
 Atom       C16          C17          C18          C19          C20     
 Charge    0.28714     -0.13814     -0.43064     -0.28121      0.09856
   
 Atom       Si21         O22          C23          C24          P25     
 Charge   -0.24817     -0.35522     -0.18518     -0.08516      0.95053
   
 Atom       O26          N27          C28          C29          C30     
 Charge   -0.65826     -0.58934      0.06359      0.11307      0.08526
   
 Atom       C31          C32          C33          C34          C35     
 Charge    0.36869      0.13454      0.12236     -0.00441     -0.09466
   
 Atom       C36          C37          C38          C39          C40     
 Charge   -0.13166     -0.16921     -0.01649     -0.21666     -0.27603
   
 Atom       C41          C42          C43          C44          C45     
 Charge   -0.19860     -0.16327     -0.14884     -0.15376     -0.14067
   
 Atom       C46          C47          C48          C49          C50     
 Charge   -0.24488     -0.06658     -0.20647     -0.15053     -0.13105
   
 Atom       C51          C52          C53          C54          C55     
 Charge   -0.12260     -0.18465     -0.09667     -0.12365     -0.21048
   
 Atom       C56          C57          C58          C59          C60     
 Charge   -0.04531     -0.16394     -0.13844     -0.14270     -0.13328
   
 Atom       C61          C62          C63          C64          C65     
 Charge   -0.12248     -0.14811     -0.12576     -0.16132     -0.28022
   
 Atom       C66          C67          C68          C69          C70     
 Charge    0.32755      0.02060     -0.20746     -0.09486     -0.22751
   
 Atom       N71          S72          O73          O74          C75     
 Charge   -0.32093      0.65546     -0.42155     -0.39418      0.49737
   
 Atom       C76          C77          C78          C79          N80     
 Charge   -0.34674      0.16147     -0.43089      0.35227     -0.56072
   
 Atom       N81          C82          C83          C84          C85     
 Charge   -0.01303     -0.06307     -0.18544     -0.27596      0.10758
   
 Atom       H86          H87          H88          H89          H90     
 Charge    0.08509      0.15490      0.15140      0.19608      0.12817
   
 Atom       H91          H92          H93          H94          H95     
 Charge    0.12408      0.19970      0.15512      0.14548      0.12474
   
 Atom       H96          H97          H98          H99          H100    
 Charge    0.10400      0.12485      0.09748      0.12875     -0.01856
   
 Atom       H101         H102         H103         H104         H105    
 Charge    0.15198      0.15365      0.15144      0.13450      0.08738
   
 Atom       H106         H107         H108         H109         H110    
 Charge    0.11887      0.10607      0.14713      0.11935      0.14193
   
 Atom       H111         H112         H113         H114         H115    
 Charge    0.13379      0.12952      0.12867      0.13616      0.12832
   
 Atom       H116         H117         H118         H119         H120    
 Charge    0.13072      0.13728      0.08374      0.13459      0.12933
   
 Atom       H121         H122         H123         H124         H125    
 Charge    0.13142      0.13396      0.12419      0.12795      0.12731
   
 Atom       H126         H127         H128         H129         H130    
 Charge    0.15520      0.16960      0.10324      0.12308      0.13240
   
 Atom       H131         H132         H133         H134         H135    
 Charge    0.16848      0.17447      0.11428      0.19322      0.06362
   
 Atom       H136         H137         H138         H139         H140    
 Charge    0.27613      0.16030      0.17375      0.20779      0.11953
   
 Atom       S141         O142         C143         O144         F145    
 Charge    0.63541     -0.40268      0.36711     -0.44070     -0.09268
   
 Atom       F146         F147         H148    
 Charge   -0.12273     -0.13328      0.30880
  
  sum of atomic charges:     0.000000
   
 RMS Error   9.74E-04 hartrees
 
  Peak memory usage:    589 Mb
  
  end of program ch
   
 Time(ch)  user:       17.0  user+sys:       17.0  wallclock:       18.6
  
  start of program post
  
  Writing input files for PBF
  Peak memory usage:    536 Mb
  
  end of program post
   
 Time(post)  user:        0.0  user+sys:        0.0  wallclock:        0.2

  start of program pbf

Pbf Version 4.00

Molecular surface area:      861.15694   [A2]
Reaction field energy:       -17.64403   [kT]
  Peak memory usage: 559 Mb

  end of program pbf

 Time(pbf)  user:       12.7  user+sys:       12.7  wallclock:       12.8
  
  start of program solv
  
   number of surface charges from PBF   13398
   sum of surface charges     -0.00045
   
  nuclear repulsion energy.......   20931.899239237 hartrees
  Peak memory usage:    701 Mb
  
  end of program solv
   
 Time(solv)  user:       34.0  user+sys:       34.0  wallclock:       35.0
  
  start of program scf
  
  
       i  u  d  i  g                   
       t  p  i  c  r                                 RMS    maximum
       e  d  i  u  i                       energy  density   DIIS  
       r  t  s  t  d       total energy    change  change    error 
  
etot    1  N  N  1  U   -5575.58881911122           5.2E-05  8.5E-04
etot    2  N  Y  1  U   -5575.58961884391  8.0E-04  1.7E-05  6.5E-04
etot    3  N  Y  1  U   -5575.58985336677  2.3E-04  5.5E-06  2.9E-04
etot    4  N  Y  1  U   -5575.58990398250  5.1E-05  2.5E-06  7.9E-05
etot    5  N  N  1  U   -5575.58991105070  7.1E-06  0.0E+00  0.0E+00
  
  
 Energy components, in hartrees:
   (A)  Total zero-electron terms....   20934.94987716103
   (B)    Nuclear-nuclear............   20931.89923923707
   (C)    Nuclear-solvent............       3.05063792395
   (E)  Total one-electron terms.....  -49398.08689698555
   (F)    Electron-nuclear...........  -54931.13109221217
   (G)    Electron-solvent...........      -3.08996704468
   (H)    Kinetic....................    5536.13416227130
   (I)  Total two-electron terms.....   22887.54710877382
   (J)    Coulomb....................   23538.83480484041
   (K)    Exchange+Correlation.......    -651.28769606659
   (L)  Electronic energy............  -26510.53978821173  (E+I)
   (N)  Total quantum mech. energy...   -5575.58991105070  (A+L)
   (O)  Gas phase energy.............   -5575.55166469860
   (P)  Solution phase energy........   -5575.57024649034  (Q+R+S)
   (Q)    Total solute energy........   -5575.55058192997  (N-C-G)
   (R)    Total solvent energy.......      -0.01966456036  (C/2+G/2)
   (S)    Solute cavity energy.......       0.00000000000
   (U)  Reorganization energy........       0.00108276863  (Q-O)
   (V)  Solvation energy.............      -0.01858179174  (P-O)
  
 SCFE:  Solution phase energy: DFT(m06-2x)      -5575.57024649034 hartrees
        SCF iterations:   5
  
 
 HOMO energy:    -0.24727
 LUMO energy:    -0.06451
 
  Orbital energies (hartrees): 
   -90.17337   -90.14068   -78.21212   -67.01103   -67.00376   -25.27703
   -25.27697   -25.27669   -19.69391   -19.68858   -19.65612   -19.65257
   -19.61301   -19.61202   -19.60873   -14.82368   -14.81843   -14.79112
   -14.74303   -10.79290   -10.66101   -10.62975   -10.62152   -10.62071
   -10.61906   -10.60669   -10.60562   -10.58549   -10.58214   -10.58122
   -10.58009   -10.57932   -10.57212   -10.57145   -10.56824   -10.56704
   -10.56567   -10.56466   -10.56397   -10.56323   -10.56322   -10.56220
   -10.56077   -10.55905   -10.55730   -10.55614   -10.55375   -10.55360
   -10.55342   -10.55332   -10.55230   -10.55191   -10.55126   -10.55122
   -10.55048   -10.54990   -10.54967   -10.54949   -10.54940   -10.54925
   -10.54840   -10.54758   -10.54753   -10.54752   -10.54718   -10.54694
   -10.54650   -10.54645   -10.54609   -10.54532   -10.54491   -10.54481
   -10.54409   -10.54374   -10.54246   -10.54111   -10.53974   -10.53905
   -10.53695   -10.53647   -10.53647   -10.53632   -10.53569   -10.53471
   -10.53436   -10.53366   -10.53359   -10.53256   -10.53168   -10.52897
   -10.52756   -10.52123    -8.48377    -8.44932    -6.99131    -6.40604
    -6.40518    -6.40400    -6.37120    -6.37078    -6.37061    -5.54201
    -5.53520    -5.10956    -5.10904    -5.10717    -3.85188    -3.85146
    -3.85127    -3.84495    -3.84479    -3.84440    -1.44474    -1.35372
    -1.35233    -1.24941    -1.22721    -1.20521    -1.18548    -1.13791
    -1.11562    -1.09254    -1.09136    -1.08211    -1.06221    -0.98332
    -0.97328    -0.97198    -0.96361    -0.94957    -0.94321    -0.94313
    -0.93963    -0.93249    -0.92902    -0.92180    -0.92046    -0.90694
    -0.90119    -0.89519    -0.88666    -0.87903    -0.85319    -0.85101
    -0.84633    -0.84405    -0.84181    -0.84014    -0.83585    -0.83425
    -0.83265    -0.83229    -0.82953    -0.82734    -0.82581    -0.82438
    -0.82415    -0.81974    -0.81944    -0.81638    -0.81447    -0.80066
    -0.79681    -0.76122    -0.75437    -0.73554    -0.72164    -0.71115
    -0.70604    -0.70229    -0.69807    -0.69483    -0.69200    -0.68742
    -0.68665    -0.68136    -0.67703    -0.67513    -0.67476    -0.67433
    -0.67252    -0.67187    -0.67007    -0.66916    -0.66720    -0.66568
    -0.66250    -0.66183    -0.65826    -0.65721    -0.65217    -0.65038
    -0.64534    -0.64245    -0.63628    -0.62373    -0.61805    -0.60888
    -0.60736    -0.60183    -0.59724    -0.58283    -0.58031    -0.57915
    -0.57831    -0.57527    -0.57216    -0.57137    -0.57013    -0.56830
    -0.56754    -0.56038    -0.55735    -0.54927    -0.54844    -0.54395
    -0.54169    -0.54113    -0.53823    -0.53747    -0.53449    -0.53340
    -0.53099    -0.52515    -0.52042    -0.52027    -0.51787    -0.51591
    -0.51530    -0.51435    -0.51191    -0.51014    -0.50916    -0.50778
    -0.50602    -0.50518    -0.50514    -0.50288    -0.50113    -0.49900
    -0.49804    -0.49639    -0.49521    -0.49422    -0.49365    -0.49210
    -0.49052    -0.48810    -0.48753    -0.48702    -0.48648    -0.48499
    -0.48277    -0.48216    -0.48160    -0.47997    -0.47858    -0.47766
    -0.47474    -0.47188    -0.47092    -0.46862    -0.46407    -0.46275
    -0.45746    -0.45292    -0.45068    -0.44931    -0.44728    -0.44619
    -0.44297    -0.44157    -0.44106    -0.43231    -0.42995    -0.42751
    -0.42611    -0.42487    -0.42425    -0.42166    -0.42064    -0.41833
    -0.41786    -0.41358    -0.41229    -0.40919    -0.40663    -0.40264
    -0.40031    -0.40025    -0.39713    -0.39565    -0.39507    -0.39322
    -0.39170    -0.38955    -0.38782    -0.38634    -0.38631    -0.38076
    -0.37987    -0.37799    -0.37437    -0.37175    -0.37015    -0.36237
    -0.35961    -0.35264    -0.35070    -0.34735    -0.34523    -0.34401
    -0.34105    -0.33995    -0.33944    -0.33746    -0.33680    -0.33325
    -0.33088    -0.32811    -0.32284    -0.31732    -0.31289    -0.30595
    -0.30576    -0.30472    -0.30171    -0.30006    -0.29893    -0.29847
    -0.29153    -0.28987    -0.28851    -0.28742    -0.28544    -0.28182
    -0.28158    -0.27604    -0.26876    -0.24727    -0.06451    -0.01749
    -0.01559    -0.00208     0.00273     0.01274     0.01391     0.01655
     0.01882     0.01985
 
  Peak memory usage:    859 Mb
  
  end of program scf
   
 Time(scf)  user:     9107.0  user+sys:     9138.0  wallclock:     9207.0
  
  start of program sole
  
    SCRF                   solvation energy
  iteration          Hartrees            kcal/mol
     0               0.0000000            0.0000
     1              -0.0185818          -11.6603
  
  solvation energy not yet converged... 
  
  Peak memory usage:    635 Mb
  
  end of program sole
   
 Time(sole)  user:        0.0  user+sys:        0.0  wallclock:        0.2
  
  start of program ch
  
  gridpoints used for charge fit        16700
    out of a possible maximum of        16700
  
   Electrostatic potential fitting constrained to reproduce
     total charge:                yes
     dipole moment:               no 
     traceless quadrupole moment: no 
     traceless octapole moment:   no 
  
  Atomic charges from electrostatic potential: 
   
 Atom       C1           C2           C3           C4           C5      
 Charge   -0.01818     -0.11782     -0.23386      0.28111      0.15711
   
 Atom       C6           C7           C8           C9           C10     
 Charge   -0.27318     -0.44924     -0.08126     -0.04522     -0.37000
   
 Atom       C11          O12          Si13         C14          C15     
 Charge    0.20640     -0.12572     -0.18652      0.12489      0.37775
   
 Atom       C16          C17          C18          C19          C20     
 Charge    0.28614     -0.14504     -0.43930     -0.28918      0.11167
   
 Atom       Si21         O22          C23          C24          P25     
 Charge   -0.26928     -0.34775     -0.19106     -0.09229      0.93687
   
 Atom       O26          N27          C28          C29          C30     
 Charge   -0.65219     -0.57350      0.07464      0.11302      0.10175
   
 Atom       C31          C32          C33          C34          C35     
 Charge    0.37652      0.13864      0.12487     -0.00532     -0.10705
   
 Atom       C36          C37          C38          C39          C40     
 Charge   -0.13176     -0.17069     -0.02341     -0.23162     -0.28383
   
 Atom       C41          C42          C43          C44          C45     
 Charge   -0.19147     -0.16544     -0.14868     -0.16123     -0.14571
   
 Atom       C46          C47          C48          C49          C50     
 Charge   -0.25097     -0.07650     -0.21307     -0.16125     -0.13754
   
 Atom       C51          C52          C53          C54          C55     
 Charge   -0.13163     -0.19082     -0.10585     -0.12798     -0.21980
   
 Atom       C56          C57          C58          C59          C60     
 Charge   -0.04728     -0.18014     -0.14733     -0.14937     -0.14460
   
 Atom       C61          C62          C63          C64          C65     
 Charge   -0.12821     -0.16000     -0.12735     -0.17075     -0.28091
   
 Atom       C66          C67          C68          C69          C70     
 Charge    0.33023      0.03156     -0.23554     -0.09102     -0.23472
   
 Atom       N71          S72          O73          O74          C75     
 Charge   -0.30816      0.66486     -0.44322     -0.40547      0.49950
   
 Atom       C76          C77          C78          C79          N80     
 Charge   -0.34787      0.16615     -0.43774      0.36247     -0.58419
   
 Atom       N81          C82          C83          C84          C85     
 Charge   -0.01581     -0.05176     -0.18857     -0.27773      0.10278
   
 Atom       H86          H87          H88          H89          H90     
 Charge    0.08718      0.16325      0.15842      0.20428      0.13661
   
 Atom       H91          H92          H93          H94          H95     
 Charge    0.12654      0.20503      0.16185      0.15313      0.13244
   
 Atom       H96          H97          H98          H99          H100    
 Charge    0.10688      0.13039      0.09899      0.13223     -0.01410
   
 Atom       H101         H102         H103         H104         H105    
 Charge    0.15865      0.16142      0.15026      0.13784      0.08675
   
 Atom       H106         H107         H108         H109         H110    
 Charge    0.12257      0.10508      0.15422      0.12916      0.15178
   
 Atom       H111         H112         H113         H114         H115    
 Charge    0.14229      0.13735      0.13675      0.14043      0.13234
   
 Atom       H116         H117         H118         H119         H120    
 Charge    0.13597      0.14102      0.08838      0.14254      0.13739
   
 Atom       H121         H122         H123         H124         H125    
 Charge    0.13925      0.14264      0.13281      0.13771      0.13378
   
 Atom       H126         H127         H128         H129         H130    
 Charge    0.16431      0.17612      0.09419      0.13826      0.13780
   
 Atom       H131         H132         H133         H134         H135    
 Charge    0.17153      0.17129      0.12357      0.20372      0.07057
   
 Atom       H136         H137         H138         H139         H140    
 Charge    0.27390      0.16504      0.18166      0.21724      0.12083
   
 Atom       S141         O142         C143         O144         F145    
 Charge    0.63655     -0.39927      0.36718     -0.45425     -0.09133
   
 Atom       F146         F147         H148    
 Charge   -0.12297     -0.13836      0.30190
  
  sum of atomic charges:     0.000000
   
 RMS Error   9.81E-04 hartrees
 
  Peak memory usage:    588 Mb
  
  end of program ch
   
 Time(ch)  user:       17.0  user+sys:       17.0  wallclock:       18.5
  
  start of program post
  
  Writing input files for PBF
  Peak memory usage:    536 Mb
  
  end of program post
   
 Time(post)  user:        0.0  user+sys:        0.0  wallclock:        0.2

  start of program pbf

Pbf Version 4.00

Molecular surface area:      861.15694   [A2]
Reaction field energy:       -20.16356   [kT]
  Peak memory usage: 559 Mb

  end of program pbf

 Time(pbf)  user:       13.3  user+sys:       13.3  wallclock:       13.4
  
  start of program solv
  
   number of surface charges from PBF   13398
   sum of surface charges     -0.00048
   
  nuclear repulsion energy.......   20931.899239237 hartrees
  Peak memory usage:    701 Mb
  
  end of program solv
   
 Time(solv)  user:       34.0  user+sys:       34.0  wallclock:       35.0
  
  start of program scf
  
  
       i  u  d  i  g                   
       t  p  i  c  r                                 RMS    maximum
       e  d  i  u  i                       energy  density   DIIS  
       r  t  s  t  d       total energy    change  change    error 
  
etot    1  N  N  1  U   -5575.59258509524           6.1E-06  1.0E-04
etot    2  N  N  1  U   -5575.59258767998  2.6E-06  0.0E+00  0.0E+00
  
  
 Energy components, in hartrees:
   (A)  Total zero-electron terms....   20935.24893132616
   (B)    Nuclear-nuclear............   20931.89923923707
   (C)    Nuclear-solvent............       3.34969208909
   (E)  Total one-electron terms.....  -49398.78825561817
   (F)    Electron-nuclear...........  -54931.54025587966
   (G)    Electron-solvent...........      -3.39200665802
   (H)    Kinetic....................    5536.14400691951
   (I)  Total two-electron terms.....   22887.94673661203
   (J)    Coulomb....................   23539.23627350568
   (K)    Exchange+Correlation.......    -651.28953689365
   (L)  Electronic energy............  -26510.84151900614  (E+I)
   (N)  Total quantum mech. energy...   -5575.59258767998  (A+L)
   (O)  Gas phase energy.............   -5575.55166469860
   (P)  Solution phase energy........   -5575.57143039551  (Q+R+S)
   (Q)    Total solute energy........   -5575.55027311105  (N-C-G)
   (R)    Total solvent energy.......      -0.02115728446  (C/2+G/2)
   (S)    Solute cavity energy.......       0.00000000000
   (U)  Reorganization energy........       0.00139158755  (Q-O)
   (V)  Solvation energy.............      -0.01976569691  (P-O)
  
 SCFE:  Solution phase energy: DFT(m06-2x)      -5575.57143039551 hartrees
        SCF iterations:   2
  
 
 HOMO energy:    -0.28188
 LUMO energy:    -0.06373
 
  Orbital energies (hartrees): 
   -54.20000   -42.16109   -40.72810   -36.45948   -35.71419   -34.05149
   -29.72226   -28.27644   -27.29536   -25.48357   -25.45833   -25.19954
   -24.99344   -24.06378   -20.31671   -19.59961   -19.23498   -19.14055
   -18.13243   -17.33673   -15.53791   -15.22383   -15.17596   -15.07337
   -14.93361   -14.92977   -14.61355   -14.57938   -14.32357   -14.30679
   -14.14447   -14.13281   -14.10265   -13.84389   -13.59076   -13.58478
   -13.33404   -12.88901   -12.70514   -12.20554   -12.13619   -11.73541
   -11.72436   -11.67276   -11.46521   -11.24009   -11.17666   -11.16265
   -11.12631   -11.07657   -10.82531   -10.81359   -10.71779   -10.66908
   -10.58815   -10.54668   -10.54031   -10.50481   -10.49920   -10.48951
   -10.44854   -10.41615   -10.40971   -10.39477   -10.38342   -10.37781
   -10.37214   -10.33667   -10.32303   -10.31707   -10.29165   -10.27993
   -10.21048   -10.19801   -10.17167   -10.16696   -10.15892   -10.06873
   -10.05561    -9.92871    -9.92649    -9.92096    -9.86175    -9.84216
    -9.82582    -9.75443    -9.72725    -9.72313    -9.70640    -9.62362
    -9.56727    -9.56580    -9.14971    -9.03685    -8.99904    -8.91439
    -8.90335    -8.77331    -8.67391    -8.30861    -8.06583    -7.99582
    -7.87676    -7.39859    -7.14593    -6.84605    -6.74689    -6.47774
    -6.31437    -6.26477    -6.03886    -4.61745    -1.46092    -1.31691
    -1.30637    -1.23479    -1.11231    -1.09971    -1.06690    -1.06081
    -1.03458    -1.01918    -0.96611    -0.95906    -0.94471    -0.93629
    -0.91127    -0.90859    -0.90404    -0.90205    -0.89877    -0.88465
    -0.88415    -0.88206    -0.87941    -0.87512    -0.87176    -0.87025
    -0.86411    -0.86079    -0.84596    -0.84092    -0.83852    -0.83728
    -0.83171    -0.82374    -0.81408    -0.80903    -0.80442    -0.78982
    -0.78957    -0.78369    -0.77659    -0.77437    -0.77396    -0.77305
    -0.76567    -0.76497    -0.76457    -0.75396    -0.75216    -0.74914
    -0.74032    -0.74014    -0.72940    -0.72083    -0.71966    -0.70394
    -0.70117    -0.69808    -0.69237    -0.68991    -0.68809    -0.68469
    -0.68232    -0.67566    -0.67305    -0.66706    -0.66130    -0.65693
    -0.65470    -0.65349    -0.65194    -0.64881    -0.64191    -0.64093
    -0.63782    -0.63655    -0.63603    -0.63142    -0.62765    -0.62713
    -0.62368    -0.62200    -0.62077    -0.61937    -0.61610    -0.61440
    -0.61305    -0.60776    -0.60730    -0.60722    -0.60522    -0.60304
    -0.59977    -0.59784    -0.59756    -0.59696    -0.59362    -0.59213
    -0.58807    -0.58316    -0.57740    -0.57331    -0.57267    -0.57063
    -0.56995    -0.56940    -0.56863    -0.56683    -0.55937    -0.54497
    -0.54457    -0.54380    -0.53728    -0.53514    -0.53261    -0.53219
    -0.53207    -0.53103    -0.52930    -0.52905    -0.52843    -0.52840
    -0.52790    -0.52418    -0.52319    -0.52255    -0.52019    -0.51834
    -0.51813    -0.51577    -0.51398    -0.51230    -0.51198    -0.51177
    -0.50906    -0.50817    -0.50768    -0.50611    -0.50605    -0.50165
    -0.50163    -0.49868    -0.49845    -0.49815    -0.49532    -0.49260
    -0.49165    -0.49150    -0.48962    -0.48849    -0.48829    -0.48798
    -0.48740    -0.48613    -0.48412    -0.48164    -0.47936    -0.47832
    -0.47808    -0.47558    -0.47495    -0.47447    -0.47307    -0.47122
    -0.47116    -0.47066    -0.47040    -0.46985    -0.46805    -0.46565
    -0.46418    -0.45937    -0.45716    -0.45570    -0.45522    -0.45462
    -0.45138    -0.45019    -0.44638    -0.44016    -0.43797    -0.43784
    -0.43540    -0.43520    -0.43506    -0.43194    -0.42964    -0.42841
    -0.42816    -0.42667    -0.42108    -0.41911    -0.41684    -0.41680
    -0.41677    -0.41500    -0.41456    -0.41251    -0.40388    -0.40356
    -0.39446    -0.39358    -0.39193    -0.39147    -0.38425    -0.37764
    -0.37008    -0.36573    -0.36133    -0.35915    -0.35619    -0.35100
    -0.35043    -0.34626    -0.34063    -0.33978    -0.33625    -0.32023
    -0.31930    -0.31672    -0.31360    -0.30724    -0.30720    -0.30289
    -0.30197    -0.29872    -0.28491    -0.28188    -0.06373    -0.01703
    -0.01553    -0.00207     0.00308     0.01287     0.01408     0.01696
     0.01898     0.02018
 
  Peak memory usage:    859 Mb
  
  end of program scf
   
 Time(scf)  user:     2308.0  user+sys:     2316.0  wallclock:     2331.0
  
  start of program sole
  
    SCRF                   solvation energy
  iteration          Hartrees            kcal/mol
     0               0.0000000            0.0000
     1              -0.0185818          -11.6603
     2              -0.0197657          -12.4032
  
  solvation energy not yet converged... 
  
  Peak memory usage:    635 Mb
  
  end of program sole
   
 Time(sole)  user:        0.0  user+sys:        0.0  wallclock:        0.2
  
  start of program ch
  
  gridpoints used for charge fit        16700
    out of a possible maximum of        16700
  
   Electrostatic potential fitting constrained to reproduce
     total charge:                yes
     dipole moment:               no 
     traceless quadrupole moment: no 
     traceless octapole moment:   no 
  
  Atomic charges from electrostatic potential: 
   
 Atom       C1           C2           C3           C4           C5      
 Charge   -0.01942     -0.11749     -0.23342      0.28086      0.15690
   
 Atom       C6           C7           C8           C9           C10     
 Charge   -0.27309     -0.44955     -0.08083     -0.04704     -0.37167
   
 Atom       C11          O12          Si13         C14          C15     
 Charge    0.20783     -0.12486     -0.19041      0.12533      0.37726
   
 Atom       C16          C17          C18          C19          C20     
 Charge    0.28614     -0.14650     -0.43876     -0.28953      0.11156
   
 Atom       Si21         O22          C23          C24          P25     
 Charge   -0.27066     -0.34658     -0.19008     -0.09217      0.93464
   
 Atom       O26          N27          C28          C29          C30     
 Charge   -0.65076     -0.57194      0.07567      0.11254      0.10339
   
 Atom       C31          C32          C33          C34          C35     
 Charge    0.37545      0.13810      0.12426     -0.00601     -0.10997
   
 Atom       C36          C37          C38          C39          C40     
 Charge   -0.13171     -0.17119     -0.02441     -0.23289     -0.28382
   
 Atom       C41          C42          C43          C44          C45     
 Charge   -0.19089     -0.16519     -0.14935     -0.16178     -0.14714
   
 Atom       C46          C47          C48          C49          C50     
 Charge   -0.25099     -0.07631     -0.21210     -0.16166     -0.13752
   
 Atom       C51          C52          C53          C54          C55     
 Charge   -0.13180     -0.19111     -0.10646     -0.12798     -0.22044
   
 Atom       C56          C57          C58          C59          C60     
 Charge   -0.04623     -0.18088     -0.14767     -0.14908     -0.14476
   
 Atom       C61          C62          C63          C64          C65     
 Charge   -0.12842     -0.15973     -0.12677     -0.17005     -0.28034
   
 Atom       C66          C67          C68          C69          C70     
 Charge    0.32850      0.03142     -0.23674     -0.08953     -0.23752
   
 Atom       N71          S72          O73          O74          C75     
 Charge   -0.30477      0.66159     -0.44445     -0.40464      0.49741
   
 Atom       C76          C77          C78          C79          N80     
 Charge   -0.34825      0.16769     -0.43625      0.36310     -0.58682
   
 Atom       N81          C82          C83          C84          C85     
 Charge   -0.01716     -0.04870     -0.18590     -0.27700      0.10087
   
 Atom       H86          H87          H88          H89          H90     
 Charge    0.08753      0.16373      0.15871      0.20515      0.13723
   
 Atom       H91          H92          H93          H94          H95     
 Charge    0.12641      0.20501      0.16217      0.15352      0.13294
   
 Atom       H96          H97          H98          H99          H100    
 Charge    0.10673      0.13115      0.09903      0.13229     -0.01321
   
 Atom       H101         H102         H103         H104         H105    
 Charge    0.15905      0.16141      0.14973      0.13778      0.08660
   
 Atom       H106         H107         H108         H109         H110    
 Charge    0.12272      0.10496      0.15481      0.13014      0.15259
   
 Atom       H111         H112         H113         H114         H115    
 Charge    0.14290      0.13793      0.13729      0.14042      0.13229
   
 Atom       H116         H117         H118         H119         H120    
 Charge    0.13617      0.14095      0.08896      0.14312      0.13798
   
 Atom       H121         H122         H123         H124         H125    
 Charge    0.13979      0.14319      0.13356      0.13855      0.13428
   
 Atom       H126         H127         H128         H129         H130    
 Charge    0.16496      0.17644      0.09354      0.13929      0.13799
   
 Atom       H131         H132         H133         H134         H135    
 Charge    0.17197      0.17074      0.12435      0.20479      0.07137
   
 Atom       H136         H137         H138         H139         H140    
 Charge    0.27309      0.16524      0.18212      0.21770      0.12056
   
 Atom       S141         O142         C143         O144         F145    
 Charge    0.63639     -0.39793      0.36662     -0.45547     -0.09103
   
 Atom       F146         F147         H148    
 Charge   -0.12293     -0.13857      0.29983
  
  sum of atomic charges:     0.000000
   
 RMS Error   9.81E-04 hartrees
 
  Peak memory usage:    588 Mb
  
  end of program ch
   
 Time(ch)  user:       17.0  user+sys:       17.0  wallclock:       21.0
  
  start of program post
  
  Writing input files for PBF
  Peak memory usage:    536 Mb
  
  end of program post
   
 Time(post)  user:        0.0  user+sys:        0.0  wallclock:        0.2

  start of program pbf

Pbf Version 4.00

Molecular surface area:      861.15694   [A2]
Reaction field energy:       -20.50082   [kT]
  Peak memory usage: 559 Mb

  end of program pbf

 Time(pbf)  user:       13.4  user+sys:       13.5  wallclock:       13.5
  
  start of program solv
  
   number of surface charges from PBF   13398
   sum of surface charges     -0.00049
   
  nuclear repulsion energy.......   20931.899239237 hartrees
  Peak memory usage:    701 Mb
  
  end of program solv
   
 Time(solv)  user:       34.0  user+sys:       34.0  wallclock:       35.1
  
  start of program scf
  
  
       i  u  d  i  g                   
       t  p  i  c  r                                 RMS    maximum
       e  d  i  u  i                       energy  density   DIIS  
       r  t  s  t  d       total energy    change  change    error 
  
etot    1  N  N  1  U   -5575.59292395585           5.5E-06  1.0E-04
etot    2  N  N  1  U   -5575.59290867247 -1.5E-05  0.0E+00  0.0E+00
  
  
 Energy components, in hartrees:
   (A)  Total zero-electron terms....   20935.30881491835
   (B)    Nuclear-nuclear............   20931.89923923707
   (C)    Nuclear-solvent............       3.40957568127
   (E)  Total one-electron terms.....  -49398.42042509851
   (F)    Electron-nuclear...........  -54931.09737376909
   (G)    Electron-solvent...........      -3.45210886591
   (H)    Kinetic....................    5536.12905753649
   (I)  Total two-electron terms.....   22887.51870150769
   (J)    Coulomb....................   23538.80698525138
   (K)    Exchange+Correlation.......    -651.28828374369
   (L)  Electronic energy............  -26510.90172359082  (E+I)
   (N)  Total quantum mech. energy...   -5575.59290867247  (A+L)
   (O)  Gas phase energy.............   -5575.55166469860
   (P)  Solution phase energy........   -5575.57164208015  (Q+R+S)
   (Q)    Total solute energy........   -5575.55037548783  (N-C-G)
   (R)    Total solvent energy.......      -0.02126659232  (C/2+G/2)
   (S)    Solute cavity energy.......       0.00000000000
   (U)  Reorganization energy........       0.00128921077  (Q-O)
   (V)  Solvation energy.............      -0.01997738155  (P-O)
  
 SCFE:  Solution phase energy: DFT(m06-2x)      -5575.57164208015 hartrees
        SCF iterations:   2
  
 
 HOMO energy:    -0.24809
 LUMO energy:    -0.06473
 
  Orbital energies (hartrees): 
   -90.17514   -90.14181   -78.21325   -67.01201   -67.00488   -25.27829
   -25.27793   -25.27771   -19.69504   -19.68983   -19.65781   -19.65257
   -19.61465   -19.61200   -19.60912   -14.82466   -14.82086   -14.79286
   -14.74434   -10.79395   -10.66293   -10.63157   -10.62308   -10.62197
   -10.61747   -10.60650   -10.60611   -10.58426   -10.58315   -10.58153
   -10.57926   -10.57763   -10.57303   -10.57100   -10.56843   -10.56621
   -10.56532   -10.56445   -10.56434   -10.56368   -10.56345   -10.56265
   -10.56094   -10.55871   -10.55766   -10.55497   -10.55387   -10.55385
   -10.55348   -10.55315   -10.55200   -10.55177   -10.55151   -10.55111
   -10.55094   -10.55051   -10.55008   -10.54986   -10.54958   -10.54904
   -10.54901   -10.54791   -10.54773   -10.54724   -10.54721   -10.54718
   -10.54717   -10.54681   -10.54633   -10.54545   -10.54537   -10.54516
   -10.54455   -10.54411   -10.54348   -10.54225   -10.54080   -10.54022
   -10.53805   -10.53751   -10.53750   -10.53692   -10.53636   -10.53580
   -10.53520   -10.53492   -10.53438   -10.53293   -10.53290   -10.53015
   -10.52888   -10.52263    -8.48548    -8.45043    -6.99243    -6.40775
    -6.40690    -6.40571    -6.37231    -6.37189    -6.37173    -5.54299
    -5.53631    -5.11069    -5.11017    -5.10829    -3.85285    -3.85243
    -3.85225    -3.84605    -3.84590    -3.84551    -1.44584    -1.35480
    -1.35346    -1.25077    -1.22836    -1.20621    -1.18667    -1.13914
    -1.11572    -1.09348    -1.09209    -1.08290    -1.06382    -0.98417
    -0.97385    -0.97232    -0.96428    -0.94954    -0.94362    -0.94354
    -0.94002    -0.93362    -0.92972    -0.92145    -0.92098    -0.90759
    -0.90074    -0.89551    -0.88744    -0.87916    -0.85292    -0.85155
    -0.84654    -0.84392    -0.84231    -0.84005    -0.83633    -0.83461
    -0.83312    -0.83279    -0.82997    -0.82793    -0.82627    -0.82515
    -0.82493    -0.82061    -0.82028    -0.81705    -0.81551    -0.80121
    -0.79755    -0.76174    -0.75533    -0.73554    -0.72258    -0.71149
    -0.70673    -0.70298    -0.69868    -0.69485    -0.69204    -0.68788
    -0.68703    -0.68140    -0.67736    -0.67541    -0.67522    -0.67507
    -0.67296    -0.67142    -0.67113    -0.66982    -0.66752    -0.66650
    -0.66297    -0.66273    -0.65877    -0.65804    -0.65278    -0.65054
    -0.64608    -0.64309    -0.63711    -0.62449    -0.61831    -0.60938
    -0.60822    -0.60234    -0.59788    -0.58296    -0.58075    -0.57948
    -0.57865    -0.57592    -0.57290    -0.57204    -0.57066    -0.56858
    -0.56763    -0.56103    -0.55795    -0.55001    -0.54930    -0.54497
    -0.54199    -0.54137    -0.53873    -0.53823    -0.53512    -0.53375
    -0.53102    -0.52559    -0.52100    -0.52041    -0.51838    -0.51611
    -0.51575    -0.51522    -0.51258    -0.51074    -0.50975    -0.50791
    -0.50666    -0.50589    -0.50561    -0.50344    -0.50164    -0.49941
    -0.49813    -0.49675    -0.49575    -0.49472    -0.49414    -0.49255
    -0.49153    -0.48851    -0.48798    -0.48722    -0.48654    -0.48551
    -0.48326    -0.48228    -0.48224    -0.48015    -0.47888    -0.47776
    -0.47415    -0.47238    -0.47168    -0.46923    -0.46474    -0.46310
    -0.45717    -0.45338    -0.45118    -0.44972    -0.44776    -0.44651
    -0.44316    -0.44237    -0.44163    -0.43305    -0.43051    -0.42799
    -0.42629    -0.42534    -0.42452    -0.42229    -0.42102    -0.41908
    -0.41848    -0.41428    -0.41297    -0.40999    -0.40725    -0.40348
    -0.40078    -0.40077    -0.39740    -0.39641    -0.39558    -0.39363
    -0.39236    -0.38981    -0.38827    -0.38728    -0.38679    -0.38178
    -0.38058    -0.37862    -0.37504    -0.37258    -0.37089    -0.36303
    -0.35968    -0.35343    -0.35150    -0.34814    -0.34582    -0.34463
    -0.34172    -0.34033    -0.34017    -0.33816    -0.33689    -0.33395
    -0.33172    -0.32899    -0.32369    -0.31743    -0.31267    -0.30632
    -0.30581    -0.30477    -0.30229    -0.30070    -0.29937    -0.29877
    -0.29187    -0.29048    -0.28951    -0.28808    -0.28607    -0.28292
    -0.28226    -0.27667    -0.26961    -0.24809    -0.06473    -0.01777
    -0.01637    -0.00265     0.00275     0.01205     0.01362     0.01653
     0.01835     0.01972
 
  Peak memory usage:    859 Mb
  
  end of program scf
   
 Time(scf)  user:     2307.0  user+sys:     2316.0  wallclock:     2356.4
  
  start of program sole
  
    SCRF                   solvation energy
  iteration          Hartrees            kcal/mol
     0               0.0000000            0.0000
     1              -0.0185818          -11.6603
     2              -0.0197657          -12.4032
     3              -0.0199774          -12.5360
  
  solvation energy not yet converged... 
  
  Peak memory usage:    635 Mb
  
  end of program sole
   
 Time(sole)  user:        0.0  user+sys:        0.0  wallclock:        0.1
  
  start of program ch
  
  gridpoints used for charge fit        16700
    out of a possible maximum of        16700
  
   Electrostatic potential fitting constrained to reproduce
     total charge:                yes
     dipole moment:               no 
     traceless quadrupole moment: no 
     traceless octapole moment:   no 
  
  Atomic charges from electrostatic potential: 
   
 Atom       C1           C2           C3           C4           C5      
 Charge   -0.01735     -0.11745     -0.23510      0.28087      0.15808
   
 Atom       C6           C7           C8           C9           C10     
 Charge   -0.27379     -0.45130     -0.08171     -0.04650     -0.37040
   
 Atom       C11          O12          Si13         C14          C15     
 Charge    0.20889     -0.12484     -0.18894      0.12551      0.37895
   
 Atom       C16          C17          C18          C19          C20     
 Charge    0.28558     -0.14489     -0.44026     -0.28970      0.11261
   
 Atom       Si21         O22          C23          C24          P25     
 Charge   -0.27006     -0.34717     -0.19225     -0.09308      0.93585
   
 Atom       O26          N27          C28          C29          C30     
 Charge   -0.65185     -0.57098      0.07640      0.11325      0.10361
   
 Atom       C31          C32          C33          C34          C35     
 Charge    0.37750      0.13948      0.12584     -0.00528     -0.10767
   
 Atom       C36          C37          C38          C39          C40     
 Charge   -0.13174     -0.17023     -0.02398     -0.23250     -0.28444
   
 Atom       C41          C42          C43          C44          C45     
 Charge   -0.18994     -0.16572     -0.14829     -0.16179     -0.14547
   
 Atom       C46          C47          C48          C49          C50     
 Charge   -0.25138     -0.07778     -0.21400     -0.16209     -0.13801
   
 Atom       C51          C52          C53          C54          C55     
 Charge   -0.13250     -0.19112     -0.10686     -0.12864     -0.22066
   
 Atom       C56          C57          C58          C59          C60     
 Charge   -0.04734     -0.18272     -0.14793     -0.15006     -0.14563
   
 Atom       C61          C62          C63          C64          C65     
 Charge   -0.12899     -0.16122     -0.12794     -0.17246     -0.27981
   
 Atom       C66          C67          C68          C69          C70     
 Charge    0.32908      0.03490     -0.23862     -0.09098     -0.23397
   
 Atom       N71          S72          O73          O74          C75     
 Charge   -0.30303      0.66451     -0.44572     -0.40723      0.50059
   
 Atom       C76          C77          C78          C79          N80     
 Charge   -0.34877      0.16613     -0.43890      0.36267     -0.58527
   
 Atom       N81          C82          C83          C84          C85     
 Charge   -0.01462     -0.05357     -0.18912     -0.27776      0.10195
   
 Atom       H86          H87          H88          H89          H90     
 Charge    0.08688      0.16394      0.15886      0.20486      0.13742
   
 Atom       H91          H92          H93          H94          H95     
 Charge    0.12624      0.20509      0.16218      0.15373      0.13307
   
 Atom       H96          H97          H98          H99          H100    
 Charge    0.10652      0.13068      0.09883      0.13205     -0.01360
   
 Atom       H101         H102         H103         H104         H105    
 Charge    0.15891      0.16217      0.14953      0.13776      0.08620
   
 Atom       H106         H107         H108         H109         H110    
 Charge    0.12233      0.10474      0.15483      0.13034      0.15283
   
 Atom       H111         H112         H113         H114         H115    
 Charge    0.14289      0.13793      0.13729      0.14041      0.13211
   
 Atom       H116         H117         H118         H119         H120    
 Charge    0.13603      0.14148      0.08870      0.14321      0.13797
   
 Atom       H121         H122         H123         H124         H125    
 Charge    0.13989      0.14320      0.13362      0.13874      0.13434
   
 Atom       H126         H127         H128         H129         H130    
 Charge    0.16537      0.17623      0.09291      0.13931      0.13828
   
 Atom       H131         H132         H133         H134         H135    
 Charge    0.17146      0.17056      0.12466      0.20522      0.07131
   
 Atom       H136         H137         H138         H139         H140    
 Charge    0.27385      0.16587      0.18291      0.21809      0.12081
   
 Atom       S141         O142         C143         O144         F145    
 Charge    0.63591     -0.39915      0.36686     -0.45461     -0.09121
   
 Atom       F146         F147         H148    
 Charge   -0.12286     -0.13895      0.30008
  
  sum of atomic charges:     0.000000
   
 RMS Error   9.81E-04 hartrees
 
  Peak memory usage:    588 Mb
  
  end of program ch
   
 Time(ch)  user:       17.0  user+sys:       17.0  wallclock:       18.7
  
  start of program post
  
  Writing input files for PBF
  Peak memory usage:    536 Mb
  
  end of program post
   
 Time(post)  user:        0.0  user+sys:        0.0  wallclock:        0.2

  start of program pbf

Pbf Version 4.00

Molecular surface area:      861.15694   [A2]
Reaction field energy:       -20.38179   [kT]
  Peak memory usage: 559 Mb

  end of program pbf

 Time(pbf)  user:       13.1  user+sys:       13.2  wallclock:       13.2
  
  start of program solv
  
   number of surface charges from PBF   13398
   sum of surface charges     -0.00048
   
  nuclear repulsion energy.......   20931.899239237 hartrees
  Peak memory usage:    701 Mb
  
  end of program solv
   
 Time(solv)  user:       34.0  user+sys:       34.0  wallclock:       35.0
  
  start of program scf
  
  
       i  u  d  i  g                   
       t  p  i  c  r                                 RMS    maximum
       e  d  i  u  i                       energy  density   DIIS  
       r  t  s  t  d       total energy    change  change    error 
  
etot    1  N  N  1  U   -5575.59279619266           8.7E-06  1.5E-04
etot    2  N  Y  1  U   -5575.59274096505 -5.5E-05  5.7E-06  2.6E-04
etot    3  N  Y  1  U   -5575.59281878436  7.8E-05  2.1E-07  1.1E-05
etot    4  N  N  1  U   -5575.59281917295  3.9E-07  0.0E+00  0.0E+00
  
  
 Energy components, in hartrees:
   (A)  Total zero-electron terms....   20935.27043856275
   (B)    Nuclear-nuclear............   20931.89923923707
   (C)    Nuclear-solvent............       3.37119932567
   (E)  Total one-electron terms.....  -49398.63339826922
   (F)    Electron-nuclear...........  -54931.35506881392
   (G)    Electron-solvent...........      -3.41368639401
   (H)    Kinetic....................    5536.13535693872
   (I)  Total two-electron terms.....   22887.77014053352
   (J)    Coulomb....................   23539.05886960119
   (K)    Exchange+Correlation.......    -651.28872906767
   (L)  Electronic energy............  -26510.86325773570  (E+I)
   (N)  Total quantum mech. energy...   -5575.59281917295  (A+L)
   (O)  Gas phase energy.............   -5575.55166469860
   (P)  Solution phase energy........   -5575.57157563878  (Q+R+S)
   (Q)    Total solute energy........   -5575.55033210461  (N-C-G)
   (R)    Total solvent energy.......      -0.02124353417  (C/2+G/2)
   (S)    Solute cavity energy.......       0.00000000000
   (U)  Reorganization energy........       0.00133259399  (Q-O)
   (V)  Solvation energy.............      -0.01991094018  (P-O)
  
 SCFE:  Solution phase energy: DFT(m06-2x)      -5575.57157563878 hartrees
        SCF iterations:   4
  
 
 HOMO energy:    -0.24761
 LUMO energy:    -0.06407
 
  Orbital energies (hartrees): 
   -90.17356   -90.14117   -78.21214   -67.01116   -67.00382   -25.27781
   -25.27766   -25.27762   -19.69384   -19.68877   -19.65710   -19.65381
   -19.61340   -19.61275   -19.60868   -14.82317   -14.81795   -14.79084
   -14.74318   -10.79360   -10.66035   -10.62978   -10.62147   -10.62076
   -10.61874   -10.60614   -10.60522   -10.58509   -10.58140   -10.58135
   -10.57951   -10.57866   -10.57225   -10.57080   -10.56766   -10.56702
   -10.56537   -10.56422   -10.56355   -10.56348   -10.56345   -10.56242
   -10.56103   -10.55879   -10.55722   -10.55582   -10.55394   -10.55383
   -10.55355   -10.55350   -10.55207   -10.55204   -10.55137   -10.55100
   -10.55094   -10.55029   -10.54977   -10.54973   -10.54962   -10.54939
   -10.54871   -10.54802   -10.54788   -10.54750   -10.54750   -10.54728
   -10.54703   -10.54692   -10.54601   -10.54560   -10.54518   -10.54483
   -10.54461   -10.54410   -10.54253   -10.54147   -10.53971   -10.53963
   -10.53790   -10.53735   -10.53665   -10.53651   -10.53651   -10.53511
   -10.53475   -10.53379   -10.53370   -10.53301   -10.53161   -10.52924
   -10.52796   -10.52134    -8.48400    -8.44981    -6.99134    -6.40626
    -6.40541    -6.40421    -6.37169    -6.37127    -6.37110    -5.54215
    -5.53527    -5.10960    -5.10907    -5.10720    -3.85202    -3.85160
    -3.85141    -3.84501    -3.84486    -3.84446    -1.44554    -1.35449
    -1.35317    -1.25000    -1.22730    -1.20569    -1.18555    -1.13867
    -1.11521    -1.09304    -1.09133    -1.08193    -1.06195    -0.98353
    -0.97323    -0.97181    -0.96395    -0.94943    -0.94346    -0.94329
    -0.93984    -0.93316    -0.92927    -0.92151    -0.92066    -0.90726
    -0.90071    -0.89498    -0.88693    -0.87862    -0.85271    -0.85129
    -0.84633    -0.84372    -0.84195    -0.83996    -0.83617    -0.83429
    -0.83287    -0.83253    -0.82975    -0.82752    -0.82599    -0.82476
    -0.82462    -0.82018    -0.81987    -0.81656    -0.81510    -0.80048
    -0.79712    -0.76096    -0.75467    -0.73526    -0.72207    -0.71086
    -0.70627    -0.70251    -0.69823    -0.69448    -0.69168    -0.68753
    -0.68633    -0.68131    -0.67713    -0.67521    -0.67494    -0.67471
    -0.67273    -0.67138    -0.67079    -0.66950    -0.66734    -0.66613
    -0.66269    -0.66238    -0.65845    -0.65765    -0.65235    -0.65019
    -0.64563    -0.64240    -0.63640    -0.62390    -0.61776    -0.60903
    -0.60753    -0.60196    -0.59745    -0.58283    -0.58050    -0.57909
    -0.57838    -0.57558    -0.57247    -0.57163    -0.57032    -0.56833
    -0.56723    -0.56055    -0.55759    -0.54958    -0.54893    -0.54464
    -0.54150    -0.54087    -0.53834    -0.53780    -0.53464    -0.53344
    -0.53075    -0.52531    -0.52059    -0.52027    -0.51803    -0.51590
    -0.51541    -0.51479    -0.51226    -0.51044    -0.50945    -0.50745
    -0.50640    -0.50555    -0.50533    -0.50312    -0.50143    -0.49911
    -0.49783    -0.49644    -0.49538    -0.49434    -0.49376    -0.49229
    -0.49114    -0.48823    -0.48767    -0.48716    -0.48639    -0.48520
    -0.48307    -0.48200    -0.48167    -0.47993    -0.47870    -0.47751
    -0.47430    -0.47206    -0.47131    -0.46883    -0.46430    -0.46268
    -0.45716    -0.45312    -0.45087    -0.44941    -0.44749    -0.44627
    -0.44283    -0.44178    -0.44125    -0.43257    -0.43018    -0.42763
    -0.42608    -0.42506    -0.42426    -0.42184    -0.42081    -0.41859
    -0.41799    -0.41387    -0.41257    -0.40954    -0.40683    -0.40292
    -0.40053    -0.40039    -0.39716    -0.39600    -0.39527    -0.39341
    -0.39198    -0.38951    -0.38807    -0.38673    -0.38639    -0.38138
    -0.38018    -0.37824    -0.37456    -0.37206    -0.37038    -0.36269
    -0.35947    -0.35283    -0.35097    -0.34730    -0.34530    -0.34420
    -0.34127    -0.33994    -0.33962    -0.33764    -0.33663    -0.33341
    -0.33112    -0.32842    -0.32316    -0.31695    -0.31247    -0.30602
    -0.30566    -0.30459    -0.30211    -0.30043    -0.29920    -0.29853
    -0.29135    -0.29006    -0.28904    -0.28763    -0.28563    -0.28246
    -0.28185    -0.27626    -0.26902    -0.24761    -0.06407    -0.01731
    -0.01589    -0.00232     0.00296     0.01254     0.01391     0.01684
     0.01874     0.02003
 
  Peak memory usage:    859 Mb
  
  end of program scf
   
 Time(scf)  user:     6893.0  user+sys:     6921.0  wallclock:     7004.4
  
  start of program sole
  
    SCRF                   solvation energy
  iteration          Hartrees            kcal/mol
     0               0.0000000            0.0000
     1              -0.0185818          -11.6603
     2              -0.0197657          -12.4032
     3              -0.0199774          -12.5360
     4              -0.0199109          -12.4943
  
  stopping: solvation energy converged
  
  iterations:   4    sfinal:    -12.4943 kcal/mol
  
  Peak memory usage:    635 Mb
  
  end of program sole
   
 Time(sole)  user:        0.0  user+sys:        0.0  wallclock:        0.1
  
  start of program post
  
  Writing input files for PBF
  Peak memory usage:    536 Mb
  
  end of program post
   
 Time(post)  user:        0.0  user+sys:        0.0  wallclock:        1.7

 Total cpu seconds     user:   54891.000   user+sys:   55151.000
  
 Total elapsed time:    89448 seconds

Job M06-2X-SPE-Toru-SiPh3-Type-I-Z-1-chkp-unrestrained.out completed on tethys at Thu Nov 24 14:55:36 2016
