Job B3LYP-SPE-Toru-SiPh3-Type-I-E-7-scan-unrestrained-lower started on tethys at Fri Nov 25 14:07:16 2016
jobid: tethys-0-58384593

  +--------------------------------------------------------------------+
  |  Jaguar version 8.4, release  16                                   |
  |                                                                    |
  |  Copyright Schrodinger, Inc.                                       |
  |  All Rights Reserved.                                              |
  |                                                                    |
  |  The following have contributed to Jaguar (listed alphabetically): |
  |  Mike Beachy, Art Bochevarov, Dale Braden, Yixiang Cao,            |
  |  Chris Cortis, Rich Friesner, Bill Goddard, Hod Greeley,           |
  |  Tom Hughes, Jean-Marc Langlois, Daniel Mainz, Rob Murphy,         |
  |  Dean Philipp, Tom Pollard, Murco Ringnalda.                       |
  |                                                                    |
  |  Use of this program should be acknowledged in publications as:    |
  |                                                                    |
  |  Jaguar, version 8.4, Schrodinger, Inc., New York, NY, 2013.       |
  |                                                                    |
  |  A. D. Bochevarov, E. Harder, T. F. Hughes, J. R. Greenwood,       |
  |  D. A. Braden, D. M. Philipp, D. Rinaldo, M. D. Halls,             |
  |  J. Zhang, R. A. Friesner, "Jaguar: A High-Performance Quantum     |
  |  Chemistry Software Program with Strengths in Life and Materials   |
  |  Sciences", Int. J. Quantum Chem., 2013, 113(18), 2110-2142.       |
  +--------------------------------------------------------------------+
  
  start of program pre
  
  Job name: B3LYP-SPE-Toru-SiPh3-Type-I-E-7-scan-unrestrained-lower
  Executables used: /usr/local/shared/schrodinger/current/jaguar-v84016/bin/Linux-x86_64
  Temporary files : /home/ab2144/.schrodinger/tmp/B3LYP-SPE-Toru-SiPh3-Type-I-E-7-scan-unrestrained-lower
  Maestro file (input):  B3LYP-SPE-Toru-SiPh3-Type-I-E-7-scan-unrestrained-lower.mae
  Maestro file (output): B3LYP-SPE-Toru-SiPh3-Type-I-E-7-scan-unrestrained-lower.01.mae
  
  
  basis set:             6-31g**         
  net molecular charge:    0
  multiplicity:            1
  
  keygrid settings 
    wispc.....   7.500E-01
    ldens.....   0
    denspc....   7.500E-01
  
   grid     daf set  nls  grid set  Q type
  ------    -------  ---  --------  ------
  coarse       1      1       1        1
  medium       2      2       2        1
  fine         3      2       3        0
  ultrafine    4      2       4        1
  charge       0      1      -1        1
  gradient     5      2       4        1
  density      0      1       0        0
  DFT-fine     0      1     -13        0
  DFT-med.     0      1     -13        0
  DFT-grad     0      1     -13        0
  DFT-der2     0      1       0        0
  DFT-cphf     0      1       0        0
  LMP2-enrg    4      2       4        1
  LMP2-grad    5      2       2        1
  DFT-cphf2    0      1       0        0
  PBF-dens     0      1       0        0
  plotting     0      1       0        0
  
  idftgrdm  100
  ndftgrdm   50    0    0
  idftgrdf  111
  ndftgrdf   85    0    0
  idftgrdg  111
  ndftgrdg   80    3    0
  idftgrdu  433
  ndftgrdu  105    0    0
  idftgrdd  433
  ndftgrdd  105    0    0
  idftgrdc  433
  ndftgrdc   26    0    0
  idftgrdp  433
  ndftgrdp   18    0    0
  
  number of basis functions....         1571
  
 Input geometry:
                                   angstroms
  atom               x                 y                 z
  C1            0.9384000000      5.3147000000     -0.5811000000 
  C2            1.7359000000      4.0581000000     -0.5009000000 
  C3            1.5010000000      6.4479000000     -1.0163000000 
  C4            3.0194000000      4.0736000000     -0.9186000000 
  C5            1.1340000000      2.7768000000     -0.0208000000 
  C6            3.6350000000      5.3352000000     -1.3931000000 
  C7            3.8118000000      2.8326000000     -0.9170000000 
  C8            2.9150000000      6.4608000000     -1.4339000000 
  C9            1.8233000000      1.6161000000     -0.1564000000 
  C10          -0.2440000000      2.7614000000      0.5261000000 
  C11           3.2643000000      1.6651000000     -0.5458000000 
  O12           1.2688000000      0.4183000000      0.2391000000 
  Si13          4.3254000000      0.1268000000     -0.5350000000 
  C14          -0.6072000000      3.4556000000      1.6282000000 
  C15          -1.2615000000      1.9899000000     -0.2262000000 
  C16          -2.0421000000      3.5303000000      2.0037000000 
  C17           0.3662000000      4.1659000000      2.4941000000 
  C18          -2.9684000000      2.9169000000      1.2548000000 
  C19          -2.4223000000      4.3188000000      3.1921000000 
  C20          -2.5695000000      2.1159000000      0.0753000000 
  Si21         -3.9219000000      1.2807000000     -0.9007000000 
  O22          -0.8355000000      1.1463000000     -1.2180000000 
  C23          -0.0521000000      4.8566000000      3.5613000000 
  C24          -1.4855000000      4.9402000000      3.9171000000 
  P25          -0.0246000000     -0.1538000000     -0.6223000000 
  O26           0.4118000000     -0.9756000000     -1.8067000000 
  O27          -0.9150000000     -0.8317000000      0.4149000000 
  C28           3.6435000000     -1.0270000000     -1.8211000000 
  C29           6.0857000000      0.5385000000     -0.9786000000 
  C30           4.4308000000     -0.6043000000      1.1726000000 
  C31          -4.6016000000     -0.1502000000      0.0830000000 
  C32          -5.2403000000      2.5729000000     -1.1736000000 
  C33          -3.2841000000      0.6684000000     -2.5469000000 
  C34           3.5236000000     -2.3466000000     -1.6027000000 
  C35           3.2995000000     -0.4747000000     -3.1541000000 
  C36           6.8164000000      1.3132000000     -0.1585000000 
  C37           6.7077000000     -0.0081000000     -2.2099000000 
  C38           5.1808000000     -1.6981000000      1.3913000000 
  C39           3.8158000000      0.0955000000      2.3274000000 
  C40          -4.1001000000     -0.4683000000      1.2894000000 
  C41          -5.7108000000     -0.9602000000     -0.4781000000 
  C42          -4.9042000000      3.7802000000     -1.6616000000 
  C43          -6.6528000000      2.3177000000     -0.7925000000 
  C44          -2.8247000000      1.5304000000     -3.4711000000 
  C45          -3.1909000000     -0.7877000000     -2.8122000000 
  C46           3.0936000000     -3.2426000000     -2.6966000000 
  C47           2.7779000000     -2.7386000000     -3.8948000000 
  C48           2.8811000000     -1.2856000000     -4.1332000000 
  C49           8.2189000000      1.6362000000     -0.4921000000 
  C50           8.7716000000      1.1487000000     -1.6088000000 
  C51           7.9800000000      0.2845000000     -2.5075000000 
  C52           5.3344000000     -2.2367000000      2.7585000000 
  C53           4.7638000000     -1.6103000000      3.7934000000 
  C54           3.9812000000     -0.3792000000      3.5687000000 
  C55          -4.6637000000     -1.6003000000      2.0544000000 
  C56          -5.6753000000     -2.3151000000      1.5495000000 
  C57          -6.2264000000     -1.9774000000      0.2226000000 
  C58          -5.9346000000      4.8191000000     -1.8659000000 
  C59          -7.2088000000      4.5717000000     -1.5447000000 
  C60          -7.5834000000      3.2630000000     -0.9747000000 
  C61          -2.2459000000      1.0321000000     -4.7365000000 
  C62          -2.1623000000     -0.2833000000     -4.9642000000 
  C63          -2.6558000000     -1.2378000000     -3.9531000000 
  C64          -3.4646000000     -6.4842000000     -0.1339000000 
  C65          -2.2932000000     -6.0375000000      0.4684000000 
  C66          -1.9283000000     -4.6821000000      0.4112000000 
  C67          -2.7481000000     -3.7782000000     -0.2823000000 
  C68          -3.9101000000     -4.2371000000     -0.9035000000 
  C69          -4.2743000000     -5.5816000000     -0.8264000000 
  C70          -0.6933000000     -4.2711000000      1.1079000000 
  N71          -0.6080000000     -3.0240000000      1.6569000000 
  S72           0.6059000000     -2.7692000000      2.8366000000 
  O73           0.4613000000     -3.8449000000      3.8274000000 
  O74           1.9005000000     -2.5542000000      2.1886000000 
  C75          -0.0412000000     -1.2115000000      3.5234000000 
  C76          -1.3600000000     -1.1762000000      3.9747000000 
  C77          -1.8193000000      0.0378000000      4.4788000000 
  C78          -0.9428000000      1.1222000000      4.5251000000 
  C79           0.3641000000      0.9483000000      4.0695000000 
  N80           0.8130000000     -0.2072000000      3.5675000000 
  N81           0.2766000000     -3.5844000000     -1.4239000000 
  C82          -0.1394000000     -4.4003000000     -2.3917000000 
  C83           0.1539000000     -5.7410000000     -2.0478000000 
  C84           0.7823000000     -5.7010000000     -0.8157000000 
  C85           0.7900000000     -4.3442000000     -0.3663000000 
  H86          -0.1071000000      5.3274000000     -0.3050000000 
  H87           0.9164000000      7.3570000000     -1.0734000000 
  H88           4.6703000000      5.3500000000     -1.7107000000 
  H89           4.8426000000      2.8877000000     -1.2368000000 
  H90           3.3649000000      7.3816000000     -1.7824000000 
  H91           1.4280000000      4.1194000000      2.2892000000 
  H92          -4.0164000000      2.9871000000      1.5222000000 
  H93          -3.4622000000      4.3987000000      3.4853000000 
  H94           0.6730000000      5.3623000000      4.1858000000 
  H95          -1.7779000000      5.5131000000      4.7876000000 
  H96          -0.7875000000     -2.1114000000      1.0700000000 
  H97           3.7564000000     -2.7818000000     -0.6433000000 
  H98           3.3855000000      0.5884000000     -3.3417000000 
  H99           6.3882000000      1.7139000000      0.7523000000 
  H100          6.1455000000     -0.6488000000     -2.8749000000 
  H101          5.6995000000     -2.1881000000      0.5769000000 
  H102          3.2511000000      1.0062000000      2.1835000000 
  H103         -3.2836000000      0.0913000000      1.7238000000 
  H104         -6.1093000000     -0.7305000000     -1.4584000000 
  H105         -3.8755000000      4.0245000000     -1.8872000000 
  H106         -6.9471000000      1.3790000000     -0.3496000000 
  H107         -2.8345000000      2.5951000000     -3.2965000000 
  H108         -3.5329000000     -1.4979000000     -2.0795000000 
  H109          3.0269000000     -4.3086000000     -2.5225000000 
  H110          2.4516000000     -3.3942000000     -4.6916000000 
  H111          2.6271000000     -0.8799000000     -5.1038000000 
  H112          8.7975000000      2.2676000000      0.1697000000 
  H113          9.7991000000      1.3838000000     -1.8546000000 
  H114          8.4331000000     -0.1145000000     -3.4058000000 
  H115          5.9178000000     -3.1336000000      2.9209000000 
  H116          4.8803000000     -1.9992000000      4.7966000000 
  H117          3.5428000000      0.1390000000      4.4117000000 
  H118         -4.2613000000     -1.8464000000      3.0273000000 
  H119         -6.0881000000     -3.1442000000      2.1093000000 
  H120         -7.0365000000     -2.5652000000     -0.1889000000 
  H121         -5.6542000000      5.7819000000     -2.2731000000 
  H122         -7.9647000000      5.3322000000     -1.6918000000 
  H123         -8.6115000000      3.0743000000     -0.6939000000 
  H124         -1.8795000000      1.7348000000     -5.4736000000 
  H125         -1.7312000000     -0.6500000000     -5.8868000000 
  H126         -2.5799000000     -2.3022000000     -4.1345000000 
  H127         -3.7434000000     -7.5313000000     -0.0657000000 
  H128         -1.6566000000     -6.7393000000      1.0003000000 
  H129         -2.4771000000     -2.7274000000     -0.3203000000 
  H130         -4.5403000000     -3.5466000000     -1.4527000000 
  H131         -5.1863000000     -5.9249000000     -1.3057000000 
  H132         -0.2582000000     -5.0465000000      1.7355000000 
  H133         -1.9903000000     -2.0548000000      3.9210000000 
  H134         -2.8423000000      0.1339000000      4.8289000000 
  H135         -1.2613000000      2.0827000000      4.9155000000 
  H136          1.0827000000      1.7633000000      4.1056000000 
  H137          0.3001000000     -2.5201000000     -1.5139000000 
  H138         -0.6128000000     -4.0069000000     -3.2811000000 
  H139         -0.0848000000     -6.6106000000     -2.6429000000 
  H140          1.1488000000     -6.5416000000     -0.2417000000 
  H141          1.5365000000     -3.8900000000      0.2752000000 
   
  principal moments of inertia:
        amu*angstrom^2:    16921.46057    21891.46836    26841.04222
                g*cm^2: 2.80987428E-36 3.63516339E-36 4.45705936E-36
   
  rotational constants:
               cm^(-1):      0.00099623      0.00077005      0.00062805
                   GHz:      0.02986616      0.02308566      0.01882859
   
  Molecular weight:    1177.32 amu
   
  Stoichiometry: Si2C72PN3H56SO6
  Molecular Point Group: C1      
  Point Group used: C1
  
  nuclear repulsion energy.......   17588.940367068 hartrees
 
 Non-default options chosen:
   SCF calculation type: DFT(b3lyp)                  
   DFT=Becke_3_Parameter/HF+Slater+Becke88+VWN+LYP (B3LYP)
   Solvation energy will be computed using PBF
     -solute cavity energy will not be included
     -surface area terms will not be included
   Highest accuracy cutoffs used in SCF
   Solvent: other                                                           
   Internal dielectric constant:    1.000
   Continuum dielectric constant:   2.380
   Solvent probe molecule radius:   2.760
  
 Temporary integer options set:
     73=  2
  
  atom       vdw   vdw2    cov     mass  grid  daf  charge   basis
  C1        1.949  1.900  0.770   12.000    Y    Y      Y    6-31g**
  C2        1.949  1.900  0.770   12.000    Y    Y      Y    6-31g**
  C3        1.949  1.900  0.770   12.000    Y    Y      Y    6-31g**
  C4        1.949  1.900  0.770   12.000    Y    Y      Y    6-31g**
  C5        1.949  1.900  0.770   12.000    Y    Y      Y    6-31g**
  C6        1.949  1.900  0.770   12.000    Y    Y      Y    6-31g**
  C7        1.949  1.900  0.770   12.000    Y    Y      Y    6-31g**
  C8        1.949  1.900  0.770   12.000    Y    Y      Y    6-31g**
  C9        1.949  1.900  0.770   12.000    Y    Y      Y    6-31g**
  C10       1.949  1.900  0.770   12.000    Y    Y      Y    6-31g**
  C11       1.949  1.900  0.770   12.000    Y    Y      Y    6-31g**
  O12       1.702  1.600  0.730   15.995    Y    Y      Y    6-31g**
  Si13      2.217  2.147  1.110   27.977    Y    Y      Y    6-31g**
  C14       1.949  1.900  0.770   12.000    Y    Y      Y    6-31g**
  C15       1.949  1.900  0.770   12.000    Y    Y      Y    6-31g**
  C16       1.949  1.900  0.770   12.000    Y    Y      Y    6-31g**
  C17       1.949  1.900  0.770   12.000    Y    Y      Y    6-31g**
  C18       1.949  1.900  0.770   12.000    Y    Y      Y    6-31g**
  C19       1.949  1.900  0.770   12.000    Y    Y      Y    6-31g**
  C20       1.949  1.900  0.770   12.000    Y    Y      Y    6-31g**
  Si21      2.217  2.147  1.110   27.977    Y    Y      Y    6-31g**
  O22       1.702  1.600  0.730   15.995    Y    Y      Y    6-31g**
  C23       1.949  1.900  0.770   12.000    Y    Y      Y    6-31g**
  C24       1.949  1.900  0.770   12.000    Y    Y      Y    6-31g**
  P25       2.147  2.074  1.060   30.974    Y    Y      Y    6-31g**
  O26       1.702  1.600  0.730   15.995    Y    Y      Y    6-31g**
  O27       1.702  1.600  0.730   15.995    Y    Y      Y    6-31g**
  C28       1.949  1.900  0.770   12.000    Y    Y      Y    6-31g**
  C29       1.949  1.900  0.770   12.000    Y    Y      Y    6-31g**
  C30       1.949  1.900  0.770   12.000    Y    Y      Y    6-31g**
  C31       1.949  1.900  0.770   12.000    Y    Y      Y    6-31g**
  C32       1.949  1.900  0.770   12.000    Y    Y      Y    6-31g**
  C33       1.949  1.900  0.770   12.000    Y    Y      Y    6-31g**
  C34       1.949  1.900  0.770   12.000    Y    Y      Y    6-31g**
  C35       1.949  1.900  0.770   12.000    Y    Y      Y    6-31g**
  C36       1.949  1.900  0.770   12.000    Y    Y      Y    6-31g**
  C37       1.949  1.900  0.770   12.000    Y    Y      Y    6-31g**
  C38       1.949  1.900  0.770   12.000    Y    Y      Y    6-31g**
  C39       1.949  1.900  0.770   12.000    Y    Y      Y    6-31g**
  C40       1.949  1.900  0.770   12.000    Y    Y      Y    6-31g**
  C41       1.949  1.900  0.770   12.000    Y    Y      Y    6-31g**
  C42       1.949  1.900  0.770   12.000    Y    Y      Y    6-31g**
  C43       1.949  1.900  0.770   12.000    Y    Y      Y    6-31g**
  C44       1.949  1.900  0.770   12.000    Y    Y      Y    6-31g**
  C45       1.949  1.900  0.770   12.000    Y    Y      Y    6-31g**
  C46       1.949  1.900  0.770   12.000    Y    Y      Y    6-31g**
  C47       1.949  1.900  0.770   12.000    Y    Y      Y    6-31g**
  C48       1.949  1.900  0.770   12.000    Y    Y      Y    6-31g**
  C49       1.949  1.900  0.770   12.000    Y    Y      Y    6-31g**
  C50       1.949  1.900  0.770   12.000    Y    Y      Y    6-31g**
  C51       1.949  1.900  0.770   12.000    Y    Y      Y    6-31g**
  C52       1.949  1.900  0.770   12.000    Y    Y      Y    6-31g**
  C53       1.949  1.900  0.770   12.000    Y    Y      Y    6-31g**
  C54       1.949  1.900  0.770   12.000    Y    Y      Y    6-31g**
  C55       1.949  1.900  0.770   12.000    Y    Y      Y    6-31g**
  C56       1.949  1.900  0.770   12.000    Y    Y      Y    6-31g**
  C57       1.949  1.900  0.770   12.000    Y    Y      Y    6-31g**
  C58       1.949  1.900  0.770   12.000    Y    Y      Y    6-31g**
  C59       1.949  1.900  0.770   12.000    Y    Y      Y    6-31g**
  C60       1.949  1.900  0.770   12.000    Y    Y      Y    6-31g**
  C61       1.949  1.900  0.770   12.000    Y    Y      Y    6-31g**
  C62       1.949  1.900  0.770   12.000    Y    Y      Y    6-31g**
  C63       1.949  1.900  0.770   12.000    Y    Y      Y    6-31g**
  C64       1.949  1.900  0.770   12.000    Y    Y      Y    6-31g**
  C65       1.949  1.900  0.770   12.000    Y    Y      Y    6-31g**
  C66       1.949  1.900  0.770   12.000    Y    Y      Y    6-31g**
  C67       1.949  1.900  0.770   12.000    Y    Y      Y    6-31g**
  C68       1.949  1.900  0.770   12.000    Y    Y      Y    6-31g**
  C69       1.949  1.900  0.770   12.000    Y    Y      Y    6-31g**
  C70       1.949  1.900  0.770   12.000    Y    Y      Y    6-31g**
  N71       1.831  1.600  0.750   14.003    Y    Y      Y    6-31g**
  S72       2.070  1.900  1.020   31.972    Y    Y      Y    6-31g**
  O73       1.702  1.600  0.730   15.995    Y    Y      Y    6-31g**
  O74       1.702  1.600  0.730   15.995    Y    Y      Y    6-31g**
  C75       1.949  1.900  0.770   12.000    Y    Y      Y    6-31g**
  C76       1.949  1.900  0.770   12.000    Y    Y      Y    6-31g**
  C77       1.949  1.900  0.770   12.000    Y    Y      Y    6-31g**
  C78       1.949  1.900  0.770   12.000    Y    Y      Y    6-31g**
  C79       1.949  1.900  0.770   12.000    Y    Y      Y    6-31g**
  N80       1.831  1.600  0.750   14.003    Y    Y      Y    6-31g**
  N81       1.831  1.600  0.750   14.003    Y    Y      Y    6-31g**
  C82       1.949  1.900  0.770   12.000    Y    Y      Y    6-31g**
  C83       1.949  1.900  0.770   12.000    Y    Y      Y    6-31g**
  C84       1.949  1.900  0.770   12.000    Y    Y      Y    6-31g**
  C85       1.949  1.900  0.770   12.000    Y    Y      Y    6-31g**
  H86       1.597  1.150  0.320    1.008    Y    Y      Y    6-31g**
  H87       1.597  1.150  0.320    1.008    Y    Y      Y    6-31g**
  H88       1.597  1.150  0.320    1.008    Y    Y      Y    6-31g**
  H89       1.597  1.150  0.320    1.008    Y    Y      Y    6-31g**
  H90       1.597  1.150  0.320    1.008    Y    Y      Y    6-31g**
  H91       1.597  1.150  0.320    1.008    Y    Y      Y    6-31g**
  H92       1.597  1.150  0.320    1.008    Y    Y      Y    6-31g**
  H93       1.597  1.150  0.320    1.008    Y    Y      Y    6-31g**
  H94       1.597  1.150  0.320    1.008    Y    Y      Y    6-31g**
  H95       1.597  1.150  0.320    1.008    Y    Y      Y    6-31g**
  H96       1.597  1.150  0.320    1.008    Y    Y      Y    6-31g**
  H97       1.597  1.150  0.320    1.008    Y    Y      Y    6-31g**
  H98       1.597  1.150  0.320    1.008    Y    Y      Y    6-31g**
  H99       1.597  1.150  0.320    1.008    Y    Y      Y    6-31g**
  H100      1.597  1.150  0.320    1.008    Y    Y      Y    6-31g**
  H101      1.597  1.150  0.320    1.008    Y    Y      Y    6-31g**
  H102      1.597  1.150  0.320    1.008    Y    Y      Y    6-31g**
  H103      1.597  1.150  0.320    1.008    Y    Y      Y    6-31g**
  H104      1.597  1.150  0.320    1.008    Y    Y      Y    6-31g**
  H105      1.597  1.150  0.320    1.008    Y    Y      Y    6-31g**
  H106      1.597  1.150  0.320    1.008    Y    Y      Y    6-31g**
  H107      1.597  1.150  0.320    1.008    Y    Y      Y    6-31g**
  H108      1.597  1.150  0.320    1.008    Y    Y      Y    6-31g**
  H109      1.597  1.150  0.320    1.008    Y    Y      Y    6-31g**
  H110      1.597  1.150  0.320    1.008    Y    Y      Y    6-31g**
  H111      1.597  1.150  0.320    1.008    Y    Y      Y    6-31g**
  H112      1.597  1.150  0.320    1.008    Y    Y      Y    6-31g**
  H113      1.597  1.150  0.320    1.008    Y    Y      Y    6-31g**
  H114      1.597  1.150  0.320    1.008    Y    Y      Y    6-31g**
  H115      1.597  1.150  0.320    1.008    Y    Y      Y    6-31g**
  H116      1.597  1.150  0.320    1.008    Y    Y      Y    6-31g**
  H117      1.597  1.150  0.320    1.008    Y    Y      Y    6-31g**
  H118      1.597  1.150  0.320    1.008    Y    Y      Y    6-31g**
  H119      1.597  1.150  0.320    1.008    Y    Y      Y    6-31g**
  H120      1.597  1.150  0.320    1.008    Y    Y      Y    6-31g**
  H121      1.597  1.150  0.320    1.008    Y    Y      Y    6-31g**
  H122      1.597  1.150  0.320    1.008    Y    Y      Y    6-31g**
  H123      1.597  1.150  0.320    1.008    Y    Y      Y    6-31g**
  H124      1.597  1.150  0.320    1.008    Y    Y      Y    6-31g**
  H125      1.597  1.150  0.320    1.008    Y    Y      Y    6-31g**
  H126      1.597  1.150  0.320    1.008    Y    Y      Y    6-31g**
  H127      1.597  1.150  0.320    1.008    Y    Y      Y    6-31g**
  H128      1.597  1.150  0.320    1.008    Y    Y      Y    6-31g**
  H129      1.597  1.150  0.320    1.008    Y    Y      Y    6-31g**
  H130      1.597  1.150  0.320    1.008    Y    Y      Y    6-31g**
  H131      1.597  1.150  0.320    1.008    Y    Y      Y    6-31g**
  H132      1.597  1.150  0.320    1.008    Y    Y      Y    6-31g**
  H133      1.597  1.150  0.320    1.008    Y    Y      Y    6-31g**
  H134      1.597  1.150  0.320    1.008    Y    Y      Y    6-31g**
  H135      1.597  1.150  0.320    1.008    Y    Y      Y    6-31g**
  H136      1.597  1.150  0.320    1.008    Y    Y      Y    6-31g**
  H137      1.597  1.150  0.320    1.008    Y    Y      Y    6-31g**
  H138      1.597  1.150  0.320    1.008    Y    Y      Y    6-31g**
  H139      1.597  1.150  0.320    1.008    Y    Y      Y    6-31g**
  H140      1.597  1.150  0.320    1.008    Y    Y      Y    6-31g**
  H141      1.597  1.150  0.320    1.008    Y    Y      Y    6-31g**
  
  Peak memory usage:    526 Mb
  
  end of program pre
   
 Time(pre)  user:        0.0  user+sys:        0.0  wallclock:        0.9
  
  start of program onee
  
  smallest eigenvalue of S:    2.206E-04
  number of canonical orbitals.....         1564
  Peak memory usage:    700 Mb
  
  end of program onee
   
 Time(onee)  user:       25.0  user+sys:       26.0  wallclock:       57.8
  
  start of program hfig
  
  initial wavefunction generated automatically from atomic wavefunctions
 
  Irreducible     Total no   No of occupied orbitals 
  representation  orbitals   Shell_1  Shell_2    ...
  No Symm         1564        308
  ------------------------
  Orbital occupation/shell    1.000
 
  Peak memory usage:    639 Mb
  
  end of program hfig
   
 Time(hfig)  user:       29.0  user+sys:       29.0  wallclock:       72.5
  
  start of program probe
  
  Peak memory usage:    633 Mb
  
  end of program probe
   
 Time(probe)  user:       23.0  user+sys:       23.0  wallclock:       57.9
  
  start of program grid
  
  
   grid     grid set  grid #  grid sym
  ------    --------  ------  --------
  coarse        0        0        1
  medium        2        1        1
  fine          0        0        1
  ultrafine     4        2        1
  charge       -1        3        1
  gradient      4        2        1
  density       0        0        1
  DFT-fine    -13        4        1
  DFT-med.    -13        4        1
  DFT-grad    -13        4        1
  DFT-der2      0        0        1
  DFT-cphf      0        0        1
  LMP2-enrg     4        2        1
  LMP2-grad     2        1        1
  DFT-cphf2     0        0        1
  PBF-dens      0        0        1
  plotting      0        0        1
  
   
  number of gridpoints: 
     atom        C1       C2       C3       C4       C5       C6       C7
  grid # 1       97      101       94      102      100       96       92
  grid # 2      338      360      336      367      358      336      336
  grid # 3       34       29       44       49       15       48       24
  grid # 4    14816    14816    14816    14816    14816    14816    14816
   
  number of gridpoints: 
     atom        C8       C9      C10      C11      O12     Si13      C14
  grid # 1       94       97      100       99      112      470      101
  grid # 2      336      357      352      357      438      470      355
  grid # 3       49       16       11       10       43        7       11
  grid # 4    14816    14816    14816    14816    23902    22912    14816
   
  number of gridpoints: 
     atom       C15      C16      C17      C18      C19      C20     Si21
  grid # 1       97      101       96       92       97      100      479
  grid # 2      354      363      333      332      335      359      479
  grid # 3       22       24       14       19       25        8        9
  grid # 4    14816    14816    14816    14816    14816    14816    22912
   
  number of gridpoints: 
     atom       O22      C23      C24      P25      O26      O27      C28
  grid # 1      112       94       93      445      115      112      100
  grid # 2      438      335      334      445      451      429      358
  grid # 3       64       22       26       11       78       36        6
  grid # 4    23902    14816    14816    23204    23902    23902    14816
   
  number of gridpoints: 
     atom       C29      C30      C31      C32      C33      C34      C35
  grid # 1      100      100      100      102      100       92       94
  grid # 2      358      360      357      361      359      332      330
  grid # 3       10        9        8       21       20       13        8
  grid # 4    14816    14816    14816    14816    14816    14816    14816
   
  number of gridpoints: 
     atom       C36      C37      C38      C39      C40      C41      C42
  grid # 1       92       96       92       96       92       94       92
  grid # 2      335      339      335      335      334      330      336
  grid # 3       18       30       17       14       18        8       28
  grid # 4    14816    14816    14816    14816    14816    14816    14816
   
  number of gridpoints: 
     atom       C43      C44      C45      C46      C47      C48      C49
  grid # 1       97       94       96       93       93       92       93
  grid # 2      340      333      332      330      333      333      335
  grid # 3       33       31       22       20       25       20       39
  grid # 4    14816    14816    14816    14816    14816    14816    14816
   
  number of gridpoints: 
     atom       C50      C51      C52      C53      C54      C55      C56
  grid # 1       94       94       93       93       93       93       93
  grid # 2      335      336      333      333      334      333      333
  grid # 3       45       43       29       30       21       30       30
  grid # 4    14816    14816    14816    14816    14816    14816    14816
   
  number of gridpoints: 
     atom       C57      C58      C59      C60      C61      C62      C63
  grid # 1       93       94       94       94       93       93       93
  grid # 2      332      336      336      337      336      335      333
  grid # 3       19       43       47       45       38       37       33
  grid # 4    14816    14816    14816    14816    14816    14816    14816
   
  number of gridpoints: 
     atom       C64      C65      C66      C67      C68      C69      C70
  grid # 1       96       96      100       95       95       96       91
  grid # 2      332      334      361      332      333      332      324
  grid # 3       36       30       25       16       25       36        6
  grid # 4    14816    14816    14816    14816    14816    14816    14816
   
  number of gridpoints: 
     atom       N71      S72      O73      O74      C75      C76      C77
  grid # 1      101      447      123      119       98       96       96
  grid # 2      356      447      502      473      357      327      328
  grid # 3       16       12      288       85       26       32       31
  grid # 4    15000    32664    23902    23902    14816    14816    14816
   
  number of gridpoints: 
     atom       C78      C79      N80      N81      C82      C83      C84
  grid # 1       96       96      110       97       94       93       93
  grid # 2      332      338      411      342      328      329      325
  grid # 3       37       34       45        6        9       11        6
  grid # 4    14816    14816    15000    15000    14816    14816    14816
   
  number of gridpoints: 
     atom       C85      H86      H87      H88      H89      H90      H91
  grid # 1       91      112      118      118      110      118      113
  grid # 2      321      434      452      446      426      453      432
  grid # 3        6      231      418      360      174      424      211
  grid # 4    14816    16416    16416    16416    16416    16416    16416
   
  number of gridpoints: 
     atom       H92      H93      H94      H95      H96      H97      H98
  grid # 1      113      117      117      117       95      107      111
  grid # 2      428      443      448      449      385      417      437
  grid # 3      213      344      390      397       47      140      257
  grid # 4    16416    16416    16416    16416    16416    16416    16416
   
  number of gridpoints: 
     atom       H99     H100     H101     H102     H103     H104     H105
  grid # 1      112      111      112      108      107      112      109
  grid # 2      437      433      431      423      418      432      427
  grid # 3      262      238      236      148      115      237      186
  grid # 4    16416    16416    16416    16416    16416    16416    16416
   
  number of gridpoints: 
     atom      H106     H107     H108     H109     H110     H111     H112
  grid # 1      110      111      105      112      117      117      118
  grid # 2      429      428      408      436      448      448      452
  grid # 3      219      209       68      267      366      374      414
  grid # 4    16416    16416    16416    16416    16416    16416    16416
   
  number of gridpoints: 
     atom      H113     H114     H115     H116     H117     H118     H119
  grid # 1      118      118      118      117      114      112      117
  grid # 2      453      453      451      452      439      431      451
  grid # 3      423      425      411      401      290      221      387
  grid # 4    16416    16416    16416    16416    16416    16416    16416
   
  number of gridpoints: 
     atom      H120     H121     H122     H123     H124     H125     H126
  grid # 1      117      118      118      118      118      117      113
  grid # 2      445      452      453      453      451      450      437
  grid # 3      354      418      424      423      410      379      270
  grid # 4    16416    16416    16416    16416    16416    16416    16416
   
  number of gridpoints: 
     atom      H127     H128     H129     H130     H131     H132     H133
  grid # 1      118      112      104      109      117      107      108
  grid # 2      450      437      408      424      449      418      431
  grid # 3      413      284       76      157      397      150      213
  grid # 4    16416    16416    16416    16416    16416    16416    16416
   
  number of gridpoints: 
     atom      H134     H135     H136     H137     H138     H139     H140
  grid # 1      115      113      110       99      112      116      115
  grid # 2      446      437      428      394      439      459      450
  grid # 3      341      255      207       69      246      425      365
  grid # 4    16416    16416    16416    16416    16416    16416    16416
   
  number of gridpoints: 
     atom      H141    total
  grid # 1      106    16035
  grid # 2      414    54579
  grid # 3      120    18373
  grid # 4    16416  2276152
   
  Peak memory usage:    666 Mb
  
  end of program grid
   
 Time(grid)  user:      357.0  user+sys:      358.0  wallclock:      737.0
  
  start of program rwr
  
  Peak memory usage:    648 Mb
  
  end of program rwr
   
 Time(rwr)  user:       68.0  user+sys:       74.0  wallclock:      152.7
  
  start of program scf
  
 number of electrons..........        616
 number of alpha electrons....        308
 number of beta electrons.....        308
 number of orbitals, total....       1564
 number of doubly-occ'd orbs..        308
 number of open shell orbs....          0
 number of occupied orbitals..        308
 number of virtual orbitals...       1256
 number of hamiltonians.......          1
 number of shells.............          1
 SCF type: DFT=Becke_3_Parameter/HF+Slater+Becke88+VWN+LYP (B3LYP)
  
       i  u  d  i  g                   
       t  p  i  c  r                                 RMS    maximum
       e  d  i  u  i                       energy  density   DIIS  
       r  t  s  t  d       total energy    change  change    error 
  
etot    1  N  N  1  U   -4700.97132272050           3.0E-03  1.0E-01
etot    2  N  Y  1  U   -4698.02526777613 -2.9E+00  4.6E-03  1.3E-01
etot    3  N  Y  1  U   -4665.07808349266 -3.3E+01  4.5E-03  1.9E-01
etot    4  N  Y  1  U   -4702.14434520534  3.7E+01  4.4E-03  6.2E-02
etot    5  N  Y  1  U   -4674.23823032320 -2.8E+01  4.0E-03  1.2E-01
etot    6  N  Y  1  U   -4710.92014107601  3.7E+01  1.1E-03  2.2E-02
etot    7  N  Y  1  U   -4710.94756749576  2.7E-02  5.8E-04  2.3E-02
etot    8  N  Y  1  U   -4711.46925881867  5.2E-01  1.7E-04  5.7E-03
etot    9  N  Y  1  U   -4711.50547221967  3.6E-02  7.2E-05  2.9E-03
etot   10  N  Y  1  U   -4711.50995594683  4.5E-03  3.8E-05  2.0E-03
etot   11  N  Y  1  U   -4711.51238851684  2.4E-03  2.0E-05  9.4E-04
etot   12  N  Y  1  U   -4711.51290930836  5.2E-04  1.3E-05  4.2E-04
etot   13  N  Y  1  U   -4711.51308131269  1.7E-04  6.4E-06  3.3E-04
etot   14  N  Y  1  U   -4711.51314020197  5.9E-05  3.0E-06  1.1E-04
etot   15  N  N  1  U   -4711.51314763933  7.4E-06  0.0E+00  0.0E+00
  
  
 Energy components, in hartrees:
   (A)  Nuclear repulsion............   17588.94036706817
   (E)  Total one-electron terms.....  -41520.54791040605
   (F)    Electron-nuclear...........  -46194.95155663599
   (H)    Kinetic....................    4674.40364622993
   (I)  Total two-electron terms.....   19220.09439569855
   (J)    Coulomb....................   19795.19770286399
   (K)    Exchange+Correlation.......    -575.10330716543
   (L)  Electronic energy............  -22300.45351470750  (E+I)
   (M)  -V/T.........................       2.00793887397  (-(A+F+I)/H)
   (N)  Total energy.................   -4711.51314763933  (A+L)
  
 SCFE: SCF energy: DFT(b3lyp)     -4711.51314763933 hartrees   iterations:  15
  
 
 HOMO energy:    -0.20609
 LUMO energy:    -0.08834
 
  Orbital energies (hartrees): 
   -89.10952   -77.21586   -66.11365   -66.10065   -19.17685   -19.17463
   -19.14444   -19.14390   -19.09859   -19.08937   -14.38150   -14.36850
   -14.35062   -10.28514   -10.26061   -10.25198   -10.24964   -10.24706
   -10.23715   -10.23305   -10.22442   -10.22190   -10.21647   -10.21388
   -10.21132   -10.20858   -10.20627   -10.20522   -10.20404   -10.20307
   -10.20224   -10.20081   -10.20051   -10.20044   -10.19993   -10.19612
   -10.19592   -10.19560   -10.19457   -10.19449   -10.19395   -10.19274
   -10.19220   -10.19181   -10.19098   -10.18979   -10.18831   -10.18788
   -10.18780   -10.18616   -10.18605   -10.18583   -10.18583   -10.18553
   -10.18514   -10.18428   -10.18407   -10.18045   -10.17933   -10.17929
   -10.17901   -10.17885   -10.17827   -10.17739   -10.17724   -10.17620
   -10.17509   -10.17482   -10.17466   -10.17298   -10.17178   -10.17173
   -10.17122   -10.17107   -10.17102   -10.17043   -10.16854   -10.16736
   -10.16576   -10.16391   -10.16390   -10.16307   -10.16059   -10.15572
   -10.15199    -8.13620    -6.66002    -6.10127    -6.10000    -6.09905
    -5.25997    -5.24749    -4.82499    -4.82351    -4.82156    -3.61898
    -3.61862    -3.61831    -3.60661    -3.60609    -3.60570    -1.11031
    -1.08668    -1.04330    -0.99888    -0.99272    -0.97019    -0.96612
    -0.94553    -0.92304    -0.87383    -0.86785    -0.85914    -0.84430
    -0.83895    -0.83149    -0.83015    -0.82449    -0.82164    -0.81793
    -0.81767    -0.80746    -0.79813    -0.79302    -0.78859    -0.77690
    -0.75804    -0.75481    -0.74854    -0.74472    -0.74244    -0.73956
    -0.73752    -0.73546    -0.73418    -0.73100    -0.73073    -0.73039
    -0.72603    -0.72567    -0.72426    -0.72138    -0.71741    -0.71358
    -0.70878    -0.70558    -0.66288    -0.64954    -0.64563    -0.62644
    -0.62179    -0.61525    -0.60976    -0.60811    -0.60448    -0.60150
    -0.59978    -0.59417    -0.59412    -0.59152    -0.58718    -0.58613
    -0.58564    -0.58447    -0.58183    -0.57884    -0.57746    -0.57580
    -0.57281    -0.56992    -0.56636    -0.56529    -0.56286    -0.55760
    -0.53889    -0.53536    -0.53138    -0.52077    -0.51687    -0.51566
    -0.50795    -0.50405    -0.50360    -0.50278    -0.50077    -0.49879
    -0.49501    -0.48868    -0.48336    -0.48336    -0.47617    -0.47224
    -0.46863    -0.46400    -0.46201    -0.46010    -0.45778    -0.45349
    -0.45154    -0.45010    -0.44821    -0.44688    -0.44470    -0.44338
    -0.43976    -0.43936    -0.43896    -0.43710    -0.43425    -0.43306
    -0.43226    -0.43106    -0.42934    -0.42743    -0.42685    -0.42610
    -0.42465    -0.42397    -0.42269    -0.42091    -0.42047    -0.41805
    -0.41640    -0.41539    -0.41397    -0.41358    -0.41033    -0.40956
    -0.40816    -0.40779    -0.40721    -0.40227    -0.39941    -0.39650
    -0.39369    -0.39263    -0.38945    -0.38325    -0.38009    -0.37998
    -0.37655    -0.37515    -0.37304    -0.37059    -0.36732    -0.36469
    -0.36177    -0.35680    -0.35650    -0.35621    -0.35442    -0.35215
    -0.34883    -0.34623    -0.34374    -0.34024    -0.33994    -0.33817
    -0.33652    -0.33495    -0.33367    -0.33035    -0.32754    -0.32644
    -0.32522    -0.32177    -0.32072    -0.31771    -0.31617    -0.31524
    -0.31333    -0.31111    -0.30737    -0.30228    -0.30086    -0.29837
    -0.29236    -0.29087    -0.28855    -0.28703    -0.28408    -0.28031
    -0.27825    -0.27633    -0.27425    -0.27060    -0.27023    -0.26522
    -0.26024    -0.25812    -0.25542    -0.25098    -0.24729    -0.24664
    -0.24480    -0.24113    -0.23921    -0.23746    -0.23715    -0.23609
    -0.23409    -0.23010    -0.22815    -0.22406    -0.22112    -0.21892
    -0.21839    -0.20609    -0.08834    -0.05075    -0.04485    -0.03401
    -0.02516    -0.01796    -0.01559    -0.01316    -0.01170    -0.00905
 
  Peak memory usage:    843 Mb
  
  end of program scf
   
 Time(scf)  user:    10334.0  user+sys:    10445.0  wallclock:    17623.7
  
  start of program ch
  
  gridpoints used for charge fit        15793
    out of a possible maximum of        18373
  
   Electrostatic potential fitting constrained to reproduce
     total charge:                yes
     dipole moment:               no 
     traceless quadrupole moment: no 
     traceless octapole moment:   no 
  
  Atomic charges from electrostatic potential: 
   
 Atom       C1           C2           C3           C4           C5      
 Charge   -0.09056      0.02763     -0.17166      0.14064     -0.09464
   
 Atom       C6           C7           C8           C9           C10     
 Charge   -0.19253     -0.28405     -0.09913      0.16913     -0.06638
   
 Atom       C11          O12          Si13         C14          C15     
 Charge    0.04994     -0.37078     -0.11342      0.14307      0.21521
   
 Atom       C16          C17          C18          C19          C20     
 Charge    0.17686     -0.16342     -0.35132     -0.21923     -0.03464
   
 Atom       Si21         O22          C23          C24          P25     
 Charge   -0.00236     -0.26273     -0.16387     -0.08990      0.94330
   
 Atom       O26          O27          C28          C29          C30     
 Charge   -0.56769     -0.61310      0.33847      0.17743      0.13499
   
 Atom       C31          C32          C33          C34          C35     
 Charge    0.06228     -0.00160      0.08485     -0.31883     -0.26441
   
 Atom       C36          C37          C38          C39          C40     
 Charge   -0.17619     -0.22499     -0.15379     -0.20686     -0.05010
   
 Atom       C41          C42          C43          C44          C45     
 Charge    0.00640     -0.08348     -0.04957     -0.21546     -0.09718
   
 Atom       C46          C47          C48          C49          C50     
 Charge   -0.06923     -0.14186     -0.07962     -0.11588     -0.14513
   
 Atom       C51          C52          C53          C54          C55     
 Charge   -0.07954     -0.12941     -0.14646     -0.05400     -0.26209
   
 Atom       C56          C57          C58          C59          C60     
 Charge   -0.04024     -0.20216     -0.15421     -0.09088     -0.16774
   
 Atom       C61          C62          C63          C64          C65     
 Charge   -0.09690     -0.12692     -0.09203     -0.13320     -0.15055
   
 Atom       C66          C67          C68          C69          C70     
 Charge    0.10463      0.02201     -0.07831     -0.15307     -0.02824
   
 Atom       N71          S72          O73          O74          C75     
 Charge   -0.44103      0.76477     -0.45793     -0.40910      0.27772
   
 Atom       C76          C77          C78          C79          N80     
 Charge   -0.29955      0.09213     -0.23112      0.14859     -0.25618
   
 Atom       N81          C82          C83          C84          C85     
 Charge   -0.06261     -0.13701     -0.10609     -0.24793      0.06855
   
 Atom       H86          H87          H88          H89          H90     
 Charge    0.09359      0.13179      0.12628      0.14920      0.11738
   
 Atom       H91          H92          H93          H94          H95     
 Charge    0.12323      0.17920      0.13407      0.13158      0.11289
   
 Atom       H96          H97          H98          H99          H100    
 Charge    0.39871      0.15581      0.14036      0.12061      0.11730
   
 Atom       H101         H102         H103         H104         H105    
 Charge    0.10347      0.13196      0.08912      0.07817      0.10824
   
 Atom       H106         H107         H108         H109         H110    
 Charge    0.05490      0.14435      0.04235      0.09278      0.10742
   
 Atom       H111         H112         H113         H114         H115    
 Charge    0.11251      0.11505      0.11955      0.10994      0.11849
   
 Atom       H116         H117         H118         H119         H120    
 Charge    0.12166      0.07878      0.15375      0.10688      0.12087
   
 Atom       H121         H122         H123         H124         H125    
 Charge    0.11921      0.11278      0.12724      0.11515      0.11672
   
 Atom       H126         H127         H128         H129         H130    
 Charge    0.08489      0.13268      0.11608      0.02200      0.10063
   
 Atom       H131         H132         H133         H134         H135    
 Charge    0.13193      0.16372      0.15021      0.09631      0.12236
   
 Atom       H136         H137         H138         H139         H140    
 Charge    0.07747      0.29514      0.18722      0.13700      0.16824
   
 Atom       H141    
 Charge    0.11227
  
  sum of atomic charges:     0.000000
   
 RMS Error   8.83E-04 hartrees
 
  Peak memory usage:    584 Mb
  
  end of program ch
   
 Time(ch)  user:       17.0  user+sys:       17.0  wallclock:       32.1
  
  start of program post
  
  Writing input files for PBF
  Peak memory usage:    534 Mb
  
  end of program post
   
 Time(post)  user:        0.0  user+sys:        0.0  wallclock:        0.4

  start of program pbf

Pbf Version 4.00

Molecular surface area:      787.05252   [A2]
Reaction field energy:       -13.18600   [kT]
  Peak memory usage: 556 Mb

  end of program pbf

 Time(pbf)  user:        8.1  user+sys:        8.1  wallclock:       16.3
  
  start of program solv
  
   number of surface charges from PBF   12854
   sum of surface charges     -0.00027
   
  nuclear repulsion energy.......   17588.940367068 hartrees
  Peak memory usage:    694 Mb
  
  end of program solv
   
 Time(solv)  user:       35.0  user+sys:       35.0  wallclock:       54.1
  
  start of program scf
  
  
       i  u  d  i  g                   
       t  p  i  c  r                                 RMS    maximum
       e  d  i  u  i                       energy  density   DIIS  
       r  t  s  t  d       total energy    change  change    error 
  
etot    1  N  N  1  U   -4711.54136761283           5.7E-05  1.1E-03
etot    2  N  Y  1  U   -4711.54173360937  3.7E-04  2.1E-05  8.3E-04
etot    3  N  Y  1  U   -4711.54210163447  3.7E-04  7.3E-06  3.5E-04
etot    4  N  Y  1  U   -4711.54216888675  6.7E-05  3.3E-06  1.2E-04
etot    5  N  N  1  U   -4711.54218102173  1.2E-05  0.0E+00  0.0E+00
  
  
 Energy components, in hartrees:
   (A)  Total zero-electron terms....   17590.49920657877
   (B)    Nuclear-nuclear............   17588.94036706817
   (C)    Nuclear-solvent............       1.55883951060
   (E)  Total one-electron terms.....  -41523.09387382409
   (F)    Electron-nuclear...........  -46195.94449485849
   (G)    Electron-solvent...........      -1.58869190708
   (H)    Kinetic....................    4674.43931294148
   (I)  Total two-electron terms.....   19221.05248622359
   (J)    Coulomb....................   19796.17067968701
   (K)    Exchange+Correlation.......    -575.11819346342
   (L)  Electronic energy............  -22302.04138760050  (E+I)
   (N)  Total quantum mech. energy...   -4711.54218102173  (A+L)
   (O)  Gas phase energy.............   -4711.51314763933
   (P)  Solution phase energy........   -4711.52725482349  (Q+R+S)
   (Q)    Total solute energy........   -4711.51232862525  (N-C-G)
   (R)    Total solvent energy.......      -0.01492619824  (C/2+G/2)
   (S)    Solute cavity energy.......       0.00000000000
   (U)  Reorganization energy........       0.00081901408  (Q-O)
   (V)  Solvation energy.............      -0.01410718416  (P-O)
  
 SCFE:  Solution phase energy: DFT(b3lyp)      -4711.52725482349 hartrees
        SCF iterations:   5
  
 
 HOMO energy:    -0.20711
 LUMO energy:    -0.08636
 
  Orbital energies (hartrees): 
   -89.11377   -77.21691   -66.11465   -66.10459   -19.17812   -19.17674
   -19.14952   -19.14774   -19.09999   -19.09034   -14.37952   -14.36973
   -14.35044   -10.28425   -10.26129   -10.25288   -10.25208   -10.24364
   -10.23610   -10.23128   -10.22244   -10.22092   -10.21423   -10.21242
   -10.20759   -10.20617   -10.20485   -10.20329   -10.20107   -10.20084
   -10.20003   -10.19988   -10.19950   -10.19886   -10.19851   -10.19655
   -10.19461   -10.19438   -10.19417   -10.19415   -10.19293   -10.19264
   -10.19087   -10.19044   -10.18962   -10.18961   -10.18858   -10.18850
   -10.18844   -10.18786   -10.18757   -10.18741   -10.18701   -10.18700
   -10.18688   -10.18576   -10.18575   -10.18416   -10.18373   -10.18232
   -10.18135   -10.18001   -10.17995   -10.17969   -10.17965   -10.17782
   -10.17765   -10.17654   -10.17537   -10.17421   -10.17414   -10.17393
   -10.17383   -10.17317   -10.17300   -10.17292   -10.17277   -10.17171
   -10.17018   -10.16857   -10.16781   -10.16560   -10.16516   -10.15899
   -10.15699    -8.14039    -6.66109    -6.10540    -6.10430    -6.10320
    -5.26095    -5.25143    -4.82606    -4.82458    -4.82262    -3.61995
    -3.61961    -3.61932    -3.61053    -3.61005    -3.60964    -1.11489
    -1.08807    -1.04497    -1.00398    -0.99066    -0.97103    -0.96608
    -0.94642    -0.92394    -0.87451    -0.86496    -0.86077    -0.84379
    -0.84028    -0.83605    -0.83156    -0.82736    -0.82280    -0.82026
    -0.81816    -0.80875    -0.79746    -0.79033    -0.78950    -0.77477
    -0.75567    -0.75469    -0.74888    -0.74384    -0.74113    -0.74065
    -0.73968    -0.73589    -0.73529    -0.73456    -0.73208    -0.73132
    -0.72840    -0.72720    -0.72695    -0.72467    -0.72194    -0.71787
    -0.70840    -0.70648    -0.66192    -0.64850    -0.64631    -0.62499
    -0.62174    -0.61564    -0.61006    -0.60780    -0.60532    -0.60123
    -0.59874    -0.59343    -0.59221    -0.59196    -0.58989    -0.58820
    -0.58653    -0.58302    -0.58217    -0.58145    -0.57823    -0.57739
    -0.57505    -0.57365    -0.56951    -0.56526    -0.56251    -0.55687
    -0.53999    -0.53329    -0.53171    -0.52236    -0.51864    -0.51661
    -0.50737    -0.50450    -0.50397    -0.50253    -0.50021    -0.49897
    -0.49724    -0.49207    -0.48485    -0.48468    -0.47434    -0.47224
    -0.46771    -0.46422    -0.46230    -0.46121    -0.45706    -0.45399
    -0.45167    -0.44976    -0.44837    -0.44658    -0.44463    -0.44341
    -0.44178    -0.43954    -0.43934    -0.43705    -0.43499    -0.43407
    -0.43332    -0.42972    -0.42957    -0.42874    -0.42799    -0.42703
    -0.42443    -0.42391    -0.42333    -0.42251    -0.42059    -0.41961
    -0.41808    -0.41641    -0.41522    -0.41404    -0.41175    -0.40937
    -0.40898    -0.40693    -0.40466    -0.40358    -0.40129    -0.39817
    -0.39432    -0.39321    -0.38961    -0.38372    -0.38269    -0.38043
    -0.37782    -0.37456    -0.37342    -0.37273    -0.36610    -0.36499
    -0.36098    -0.35842    -0.35812    -0.35544    -0.35417    -0.35126
    -0.35042    -0.34895    -0.34622    -0.34265    -0.34141    -0.33873
    -0.33777    -0.33579    -0.33558    -0.33452    -0.32930    -0.32811
    -0.32728    -0.32498    -0.32380    -0.31970    -0.31863    -0.31687
    -0.31582    -0.31311    -0.30927    -0.30287    -0.30276    -0.30034
    -0.29314    -0.29188    -0.28948    -0.28800    -0.28569    -0.28038
    -0.27899    -0.27783    -0.27644    -0.27198    -0.27150    -0.26687
    -0.25844    -0.25661    -0.25584    -0.25041    -0.24909    -0.24817
    -0.24595    -0.24472    -0.24402    -0.23866    -0.23862    -0.23695
    -0.23501    -0.23192    -0.23067    -0.22679    -0.22609    -0.22333
    -0.22027    -0.20711    -0.08636    -0.05078    -0.04488    -0.03318
    -0.02760    -0.01754    -0.01601    -0.01319    -0.00945    -0.00890
 
  Peak memory usage:    839 Mb
  
  end of program scf
   
 Time(scf)  user:     2835.0  user+sys:     2865.0  wallclock:     4451.0
  
  start of program sole
  
    SCRF                   solvation energy
  iteration          Hartrees            kcal/mol
     0               0.0000000            0.0000
     1              -0.0141072           -8.8524
  
  solvation energy not yet converged... 
  
  Peak memory usage:    634 Mb
  
  end of program sole
   
 Time(sole)  user:        0.0  user+sys:        0.0  wallclock:        0.3
  
  start of program ch
  
  gridpoints used for charge fit        15793
    out of a possible maximum of        15793
  
   Electrostatic potential fitting constrained to reproduce
     total charge:                yes
     dipole moment:               no 
     traceless quadrupole moment: no 
     traceless octapole moment:   no 
  
  Atomic charges from electrostatic potential: 
   
 Atom       C1           C2           C3           C4           C5      
 Charge   -0.08784      0.02413     -0.18239      0.14553     -0.09056
   
 Atom       C6           C7           C8           C9           C10     
 Charge   -0.20213     -0.30548     -0.10484      0.15084     -0.06467
   
 Atom       C11          O12          Si13         C14          C15     
 Charge    0.07610     -0.35714     -0.14262      0.15251      0.19388
   
 Atom       C16          C17          C18          C19          C20     
 Charge    0.17145     -0.17143     -0.35607     -0.22279     -0.01436
   
 Atom       Si21         O22          C23          C24          P25     
 Charge   -0.01786     -0.24431     -0.16685     -0.09894      0.91423
   
 Atom       O26          O27          C28          C29          C30     
 Charge   -0.55431     -0.59815      0.36084      0.18317      0.14983
   
 Atom       C31          C32          C33          C34          C35     
 Charge    0.06770     -0.00552      0.08872     -0.33513     -0.27827
   
 Atom       C36          C37          C38          C39          C40     
 Charge   -0.18212     -0.22749     -0.16270     -0.21499     -0.05986
   
 Atom       C41          C42          C43          C44          C45     
 Charge    0.01295     -0.08620     -0.04689     -0.23211     -0.09709
   
 Atom       C46          C47          C48          C49          C50     
 Charge   -0.07256     -0.15118     -0.08064     -0.12111     -0.15331
   
 Atom       C51          C52          C53          C54          C55     
 Charge   -0.08771     -0.13574     -0.15994     -0.05602     -0.26909
   
 Atom       C56          C57          C58          C59          C60     
 Charge   -0.04453     -0.21354     -0.16024     -0.09845     -0.17797
   
 Atom       C61          C62          C63          C64          C65     
 Charge   -0.10303     -0.13243     -0.09985     -0.14024     -0.15357
   
 Atom       C66          C67          C68          C69          C70     
 Charge    0.10742      0.02447     -0.08156     -0.15534     -0.04838
   
 Atom       N71          S72          O73          O74          C75     
 Charge   -0.42539      0.77431     -0.48661     -0.41077      0.27799
   
 Atom       C76          C77          C78          C79          N80     
 Charge   -0.30302      0.09425     -0.23463      0.14845     -0.26382
   
 Atom       N81          C82          C83          C84          C85     
 Charge   -0.05708     -0.14963     -0.09745     -0.26462      0.08734
   
 Atom       H86          H87          H88          H89          H90     
 Charge    0.09430      0.14009      0.13231      0.15603      0.12487
   
 Atom       H91          H92          H93          H94          H95     
 Charge    0.12608      0.18403      0.14071      0.13837      0.12096
   
 Atom       H96          H97          H98          H99          H100    
 Charge    0.38523      0.16328      0.14551      0.12447      0.11698
   
 Atom       H101         H102         H103         H104         H105    
 Charge    0.10630      0.13543      0.09216      0.07906      0.11153
   
 Atom       H106         H107         H108         H109         H110    
 Charge    0.05345      0.15256      0.04130      0.09565      0.11453
   
 Atom       H111         H112         H113         H114         H115    
 Charge    0.11742      0.12203      0.12698      0.11726      0.12470
   
 Atom       H116         H117         H118         H119         H120    
 Charge    0.12867      0.08186      0.15988      0.11317      0.12873
   
 Atom       H121         H122         H123         H124         H125    
 Charge    0.12611      0.12012      0.13495      0.12183      0.12259
   
 Atom       H126         H127         H128         H129         H130    
 Charge    0.08976      0.13966      0.12338      0.02379      0.10357
   
 Atom       H131         H132         H133         H134         H135    
 Charge    0.13760      0.17201      0.15555      0.10426      0.12928
   
 Atom       H136         H137         H138         H139         H140    
 Charge    0.08182      0.29133      0.19718      0.14200      0.17932
   
 Atom       H141    
 Charge    0.10245
  
  sum of atomic charges:     0.000000
   
 RMS Error   8.97E-04 hartrees
 
  Peak memory usage:    583 Mb
  
  end of program ch
   
 Time(ch)  user:       17.0  user+sys:       18.0  wallclock:       35.2
  
  start of program post
  
  Writing input files for PBF
  Peak memory usage:    534 Mb
  
  end of program post
   
 Time(post)  user:        0.0  user+sys:        0.0  wallclock:        0.4

  start of program pbf

Pbf Version 4.00

Molecular surface area:      787.05252   [A2]
Reaction field energy:       -15.11230   [kT]
  Peak memory usage: 556 Mb

  end of program pbf

 Time(pbf)  user:        7.2  user+sys:        7.3  wallclock:       14.3
  
  start of program solv
  
   number of surface charges from PBF   12854
   sum of surface charges     -0.00028
   
  nuclear repulsion energy.......   17588.940367068 hartrees
  Peak memory usage:    694 Mb
  
  end of program solv
   
 Time(solv)  user:       34.0  user+sys:       34.0  wallclock:       56.5
  
  start of program scf
  
  
       i  u  d  i  g                   
       t  p  i  c  r                                 RMS    maximum
       e  d  i  u  i                       energy  density   DIIS  
       r  t  s  t  d       total energy    change  change    error 
  
etot    1  N  N  1  U   -4711.54425753488           7.4E-06  9.9E-05
etot    2  N  N  1  U   -4711.54423629883 -2.1E-05  0.0E+00  0.0E+00
  
  
 Energy components, in hartrees:
   (A)  Total zero-electron terms....   17590.65669521378
   (B)    Nuclear-nuclear............   17588.94036706817
   (C)    Nuclear-solvent............       1.71632814561
   (E)  Total one-electron terms.....  -41523.74984782900
   (F)    Electron-nuclear...........  -46196.45731426679
   (G)    Electron-solvent...........      -1.74853355746
   (H)    Kinetic....................    4674.45599999525
   (I)  Total two-electron terms.....   19221.54891631639
   (J)    Coulomb....................   19796.66974963752
   (K)    Exchange+Correlation.......    -575.12083332113
   (L)  Electronic energy............  -22302.20093151261  (E+I)
   (N)  Total quantum mech. energy...   -4711.54423629883  (A+L)
   (O)  Gas phase energy.............   -4711.51314763933
   (P)  Solution phase energy........   -4711.52813359290  (Q+R+S)
   (Q)    Total solute energy........   -4711.51203088698  (N-C-G)
   (R)    Total solvent energy.......      -0.01610270593  (C/2+G/2)
   (S)    Solute cavity energy.......       0.00000000000
   (U)  Reorganization energy........       0.00111675235  (Q-O)
   (V)  Solvation energy.............      -0.01498595358  (P-O)
  
 SCFE:  Solution phase energy: DFT(b3lyp)      -4711.52813359290 hartrees
        SCF iterations:   2
  
 
 HOMO energy:    -0.21713
 LUMO energy:    -0.08528
 
  Orbital energies (hartrees): 
   -65.48117   -61.72004   -49.82499   -36.89985   -33.64177   -32.56493
   -27.14817   -23.67839   -20.76061   -16.39981   -16.32701   -15.74365
   -15.72200   -15.36553   -14.74363   -13.00779   -12.80399   -12.08894
   -11.84157   -11.44204   -10.88496   -10.85631   -10.80775   -10.80399
   -10.69622   -10.64337   -10.60120   -10.52934   -10.51145   -10.40076
   -10.39610   -10.38421   -10.37469   -10.35091   -10.32724   -10.31189
   -10.27956   -10.27416   -10.27135   -10.26525   -10.25237   -10.25129
   -10.24129   -10.22598   -10.21347   -10.18249   -10.17729   -10.16584
   -10.16431   -10.15246   -10.14180   -10.13594   -10.12848   -10.12737
   -10.12105   -10.10821   -10.09471   -10.09460   -10.07884   -10.05116
   -10.03145   -10.02835   -10.00811    -9.99437    -9.98954    -9.97602
    -9.96457    -9.96224    -9.95834    -9.95731    -9.94959    -9.90738
    -9.87974    -9.85401    -9.70959    -9.68194    -9.68029    -9.51662
    -9.49984    -9.49486    -9.40509    -9.27438    -9.12807    -9.11301
    -9.09782    -8.63501    -8.56111    -8.51170    -8.32594    -7.94427
    -7.80948    -7.73758    -6.78053    -6.68010    -6.54966    -6.45628
    -6.01562    -4.58865    -3.71581    -3.69651    -3.67938    -1.01458
    -1.00465    -0.98593    -0.90579    -0.90402    -0.90392    -0.88505
    -0.85862    -0.85024    -0.84158    -0.84099    -0.83776    -0.82634
    -0.81801    -0.81041    -0.80922    -0.80202    -0.78357    -0.77458
    -0.77266    -0.77154    -0.77139    -0.76919    -0.75164    -0.73193
    -0.72904    -0.72899    -0.71323    -0.71321    -0.70145    -0.70114
    -0.70057    -0.69855    -0.69456    -0.69447    -0.69073    -0.68823
    -0.68334    -0.67960    -0.66348    -0.66269    -0.64261    -0.63996
    -0.63865    -0.63856    -0.63238    -0.62463    -0.62318    -0.62039
    -0.61870    -0.61023    -0.60719    -0.60677    -0.59797    -0.59702
    -0.59655    -0.59621    -0.59130    -0.58688    -0.57165    -0.56911
    -0.56902    -0.56901    -0.56851    -0.56726    -0.56669    -0.56548
    -0.56338    -0.56074    -0.55349    -0.54290    -0.54253    -0.54156
    -0.53877    -0.53867    -0.53862    -0.53853    -0.53155    -0.53138
    -0.53111    -0.53041    -0.51973    -0.51722    -0.50538    -0.49823
    -0.49789    -0.49444    -0.49016    -0.48940    -0.48611    -0.47872
    -0.47699    -0.47522    -0.47454    -0.47386    -0.47276    -0.47182
    -0.46621    -0.46608    -0.46248    -0.46210    -0.46071    -0.46027
    -0.45804    -0.45771    -0.45731    -0.45565    -0.44908    -0.44712
    -0.44662    -0.44610    -0.44398    -0.44116    -0.43943    -0.43895
    -0.43859    -0.43859    -0.43849    -0.43737    -0.43638    -0.43412
    -0.43158    -0.42925    -0.42913    -0.42789    -0.42726    -0.42571
    -0.42313    -0.42235    -0.42198    -0.42140    -0.42085    -0.41896
    -0.41791    -0.41770    -0.41718    -0.41686    -0.41648    -0.41643
    -0.41452    -0.40972    -0.40368    -0.40008    -0.39993    -0.39687
    -0.39683    -0.39533    -0.39262    -0.39222    -0.39196    -0.38467
    -0.38453    -0.38363    -0.38345    -0.38312    -0.38023    -0.37800
    -0.37736    -0.37703    -0.37586    -0.37423    -0.37344    -0.37215
    -0.36968    -0.36801    -0.36699    -0.36690    -0.36420    -0.36343
    -0.36286    -0.36015    -0.35905    -0.35756    -0.35578    -0.35203
    -0.35161    -0.35102    -0.34866    -0.34703    -0.34103    -0.33929
    -0.33871    -0.33293    -0.33145    -0.33051    -0.31174    -0.30302
    -0.30191    -0.29594    -0.29115    -0.28952    -0.27993    -0.26272
    -0.25699    -0.25593    -0.25578    -0.25393    -0.25291    -0.25030
    -0.25025    -0.24647    -0.24465    -0.24342    -0.24092    -0.23876
    -0.23767    -0.21713    -0.08528    -0.05013    -0.04407    -0.03243
    -0.02713    -0.01717    -0.01537    -0.01278    -0.00883    -0.00846
 
  Peak memory usage:    839 Mb
  
  end of program scf
   
 Time(scf)  user:      737.0  user+sys:      746.0  wallclock:     1145.9
  
  start of program sole
  
    SCRF                   solvation energy
  iteration          Hartrees            kcal/mol
     0               0.0000000            0.0000
     1              -0.0141072           -8.8524
     2              -0.0149860           -9.4038
  
  solvation energy not yet converged... 
  
  Peak memory usage:    634 Mb
  
  end of program sole
   
 Time(sole)  user:        0.0  user+sys:        0.0  wallclock:        0.4
  
  start of program ch
  
  gridpoints used for charge fit        15793
    out of a possible maximum of        15793
  
   Electrostatic potential fitting constrained to reproduce
     total charge:                yes
     dipole moment:               no 
     traceless quadrupole moment: no 
     traceless octapole moment:   no 
  
  Atomic charges from electrostatic potential: 
   
 Atom       C1           C2           C3           C4           C5      
 Charge   -0.08921      0.02340     -0.18110      0.14621     -0.09082
   
 Atom       C6           C7           C8           C9           C10     
 Charge   -0.20297     -0.30641     -0.10384      0.14749     -0.06824
   
 Atom       C11          O12          Si13         C14          C15     
 Charge    0.07792     -0.35540     -0.14621      0.15468      0.18956
   
 Atom       C16          C17          C18          C19          C20     
 Charge    0.17015     -0.17414     -0.35285     -0.22084     -0.01257
   
 Atom       Si21         O22          C23          C24          P25     
 Charge   -0.01964     -0.24196     -0.16457     -0.09931      0.90889
   
 Atom       O26          O27          C28          C29          C30     
 Charge   -0.55092     -0.59561      0.36180      0.18278      0.15016
   
 Atom       C31          C32          C33          C34          C35     
 Charge    0.06780     -0.00674      0.08701     -0.33756     -0.28161
   
 Atom       C36          C37          C38          C39          C40     
 Charge   -0.18266     -0.22820     -0.16260     -0.21632     -0.06099
   
 Atom       C41          C42          C43          C44          C45     
 Charge    0.01262     -0.08664     -0.04698     -0.23369     -0.09723
   
 Atom       C46          C47          C48          C49          C50     
 Charge   -0.07210     -0.15077     -0.07892     -0.12131     -0.15286
   
 Atom       C51          C52          C53          C54          C55     
 Charge   -0.08771     -0.13496     -0.16120     -0.05596     -0.26898
   
 Atom       C56          C57          C58          C59          C60     
 Charge   -0.04448     -0.21319     -0.16031     -0.09843     -0.17818
   
 Atom       C61          C62          C63          C64          C65     
 Charge   -0.10374     -0.13126     -0.10008     -0.13866     -0.15384
   
 Atom       C66          C67          C68          C69          C70     
 Charge    0.10468      0.02357     -0.08081     -0.15322     -0.05255
   
 Atom       N71          S72          O73          O74          C75     
 Charge   -0.42548      0.77093     -0.48836     -0.40808      0.27556
   
 Atom       C76          C77          C78          C79          N80     
 Charge   -0.30353      0.09634     -0.23300      0.14844     -0.26616
   
 Atom       N81          C82          C83          C84          C85     
 Charge   -0.05508     -0.14747     -0.09347     -0.26497      0.08746
   
 Atom       H86          H87          H88          H89          H90     
 Charge    0.09470      0.14069      0.13256      0.15669      0.12536
   
 Atom       H91          H92          H93          H94          H95     
 Charge    0.12604      0.18432      0.14099      0.13872      0.12173
   
 Atom       H96          H97          H98          H99          H100    
 Charge    0.38348      0.16426      0.14608      0.12458      0.11676
   
 Atom       H101         H102         H103         H104         H105    
 Charge    0.10622      0.13559      0.09185      0.07885      0.11164
   
 Atom       H106         H107         H108         H109         H110    
 Charge    0.05326      0.15305      0.04142      0.09585      0.11536
   
 Atom       H111         H112         H113         H114         H115    
 Charge    0.11784      0.12273      0.12761      0.11787      0.12500
   
 Atom       H116         H117         H118         H119         H120    
 Charge    0.12911      0.08210      0.16024      0.11377      0.12948
   
 Atom       H121         H122         H123         H124         H125    
 Charge    0.12668      0.12070      0.13551      0.12235      0.12297
   
 Atom       H126         H127         H128         H129         H130    
 Charge    0.09048      0.14002      0.12417      0.02327      0.10358
   
 Atom       H131         H132         H133         H134         H135    
 Charge    0.13768      0.17279      0.15601      0.10518      0.13038
   
 Atom       H136         H137         H138         H139         H140    
 Charge    0.08214      0.28903      0.19748      0.14214      0.18002
   
 Atom       H141    
 Charge    0.10115
  
  sum of atomic charges:     0.000000
   
 RMS Error   8.98E-04 hartrees
 
  Peak memory usage:    582 Mb
  
  end of program ch
   
 Time(ch)  user:       17.0  user+sys:       18.0  wallclock:       31.0
  
  start of program post
  
  Writing input files for PBF
  Peak memory usage:    534 Mb
  
  end of program post
   
 Time(post)  user:        0.0  user+sys:        0.0  wallclock:        0.4

  start of program pbf

Pbf Version 4.00

Molecular surface area:      787.05252   [A2]
Reaction field energy:       -15.41077   [kT]
  Peak memory usage: 556 Mb

  end of program pbf

 Time(pbf)  user:        7.5  user+sys:        7.6  wallclock:       13.0
  
  start of program solv
  
   number of surface charges from PBF   12854
   sum of surface charges     -0.00030
   
  nuclear repulsion energy.......   17588.940367068 hartrees
  Peak memory usage:    694 Mb
  
  end of program solv
   
 Time(solv)  user:       34.0  user+sys:       34.0  wallclock:       58.8
  
  start of program scf
  
  
       i  u  d  i  g                   
       t  p  i  c  r                                 RMS    maximum
       e  d  i  u  i                       energy  density   DIIS  
       r  t  s  t  d       total energy    change  change    error 
  
etot    1  N  N  1  U   -4711.54453822816           1.3E-05  1.9E-04
etot    2  N  Y  1  U   -4711.54439198354 -1.5E-04  9.0E-06  4.9E-04
etot    3  N  Y  1  U   -4711.54456654254  1.7E-04  5.3E-07  2.2E-05
etot    4  N  N  1  U   -4711.54456676637  2.2E-07  0.0E+00  0.0E+00
  
  
 Energy components, in hartrees:
   (A)  Total zero-electron terms....   17590.71037019038
   (B)    Nuclear-nuclear............   17588.94036706817
   (C)    Nuclear-solvent............       1.77000312220
   (E)  Total one-electron terms.....  -41523.51717921516
   (F)    Electron-nuclear...........  -46196.15637720915
   (G)    Electron-solvent...........      -1.80243724823
   (H)    Kinetic....................    4674.44163524223
   (I)  Total two-electron terms.....   19221.26224225842
   (J)    Coulomb....................   19796.38132166153
   (K)    Exchange+Correlation.......    -575.11907940311
   (L)  Electronic energy............  -22302.25493695674  (E+I)
   (N)  Total quantum mech. energy...   -4711.54456676637  (A+L)
   (O)  Gas phase energy.............   -4711.51314763933
   (P)  Solution phase energy........   -4711.52834970335  (Q+R+S)
   (Q)    Total solute energy........   -4711.51213264034  (N-C-G)
   (R)    Total solvent energy.......      -0.01621706301  (C/2+G/2)
   (S)    Solute cavity energy.......       0.00000000000
   (U)  Reorganization energy........       0.00101499899  (Q-O)
   (V)  Solvation energy.............      -0.01520206403  (P-O)
  
 SCFE:  Solution phase energy: DFT(b3lyp)      -4711.52834970335 hartrees
        SCF iterations:   4
  
 
 HOMO energy:    -0.20698
 LUMO energy:    -0.08586
 
  Orbital energies (hartrees): 
   -89.11383   -77.21664   -66.11448   -66.10478   -19.17769   -19.17647
   -19.15080   -19.14911   -19.09962   -19.09042   -14.37900   -14.36896
   -14.35016   -10.28338   -10.26114   -10.25224   -10.25178   -10.24348
   -10.23596   -10.23080   -10.22222   -10.22078   -10.21330   -10.21231
   -10.20698   -10.20594   -10.20408   -10.20329   -10.20046   -10.20036
   -10.20015   -10.19931   -10.19898   -10.19840   -10.19802   -10.19618
   -10.19479   -10.19458   -10.19431   -10.19399   -10.19262   -10.19236
   -10.19067   -10.19022   -10.18973   -10.18941   -10.18885   -10.18875
   -10.18829   -10.18804   -10.18779   -10.18739   -10.18718   -10.18714
   -10.18707   -10.18618   -10.18596   -10.18467   -10.18424   -10.18277
   -10.18191   -10.18022   -10.18017   -10.18005   -10.17980   -10.17800
   -10.17753   -10.17679   -10.17509   -10.17439   -10.17426   -10.17415
   -10.17404   -10.17399   -10.17307   -10.17293   -10.17277   -10.17259
   -10.17111   -10.16909   -10.16827   -10.16559   -10.16547   -10.15899
   -10.15746    -8.14050    -6.66083    -6.10549    -6.10442    -6.10331
    -5.26080    -5.25163    -4.82580    -4.82432    -4.82235    -3.61979
    -3.61946    -3.61917    -3.61073    -3.61025    -3.60984    -1.11547
    -1.08775    -1.04468    -1.00479    -0.99026    -0.97078    -0.96596
    -0.94605    -0.92372    -0.87438    -0.86438    -0.86085    -0.84369
    -0.84038    -0.83656    -0.83165    -0.82758    -0.82343    -0.82011
    -0.81803    -0.80875    -0.79726    -0.78990    -0.78942    -0.77431
    -0.75565    -0.75412    -0.74884    -0.74371    -0.74151    -0.74074
    -0.73927    -0.73589    -0.73580    -0.73439    -0.73212    -0.73135
    -0.72862    -0.72729    -0.72715    -0.72499    -0.72253    -0.71841
    -0.70816    -0.70639    -0.66162    -0.64832    -0.64613    -0.62468
    -0.62150    -0.61552    -0.61015    -0.60742    -0.60532    -0.60116
    -0.59843    -0.59330    -0.59225    -0.59151    -0.59020    -0.58860
    -0.58655    -0.58256    -0.58219    -0.58164    -0.57838    -0.57759
    -0.57504    -0.57410    -0.56994    -0.56515    -0.56224    -0.55659
    -0.53988    -0.53283    -0.53167    -0.52254    -0.51865    -0.51672
    -0.50729    -0.50451    -0.50395    -0.50245    -0.50016    -0.49879
    -0.49733    -0.49253    -0.48496    -0.48478    -0.47394    -0.47217
    -0.46745    -0.46428    -0.46221    -0.46121    -0.45696    -0.45406
    -0.45166    -0.44967    -0.44825    -0.44635    -0.44452    -0.44334
    -0.44215    -0.43939    -0.43924    -0.43717    -0.43504    -0.43415
    -0.43334    -0.43006    -0.42912    -0.42859    -0.42795    -0.42695
    -0.42439    -0.42394    -0.42327    -0.42247    -0.42077    -0.41973
    -0.41818    -0.41641    -0.41529    -0.41391    -0.41221    -0.40929
    -0.40882    -0.40663    -0.40456    -0.40337    -0.40148    -0.39841
    -0.39428    -0.39320    -0.38954    -0.38373    -0.38290    -0.38041
    -0.37798    -0.37474    -0.37320    -0.37259    -0.36606    -0.36465
    -0.36067    -0.35857    -0.35824    -0.35516    -0.35405    -0.35161
    -0.35033    -0.34871    -0.34641    -0.34292    -0.34169    -0.33861
    -0.33789    -0.33606    -0.33568    -0.33487    -0.32973    -0.32814
    -0.32738    -0.32550    -0.32401    -0.32022    -0.31855    -0.31688
    -0.31600    -0.31320    -0.30958    -0.30297    -0.30277    -0.30039
    -0.29304    -0.29184    -0.28943    -0.28798    -0.28568    -0.28045
    -0.27916    -0.27780    -0.27629    -0.27205    -0.27146    -0.26684
    -0.25802    -0.25646    -0.25541    -0.25029    -0.24922    -0.24827
    -0.24646    -0.24481    -0.24428    -0.23876    -0.23868    -0.23683
    -0.23485    -0.23202    -0.23076    -0.22708    -0.22658    -0.22394
    -0.22024    -0.20698    -0.08586    -0.05063    -0.04480    -0.03306
    -0.02774    -0.01749    -0.01587    -0.01304    -0.00909    -0.00896
 
  Peak memory usage:    839 Mb
  
  end of program scf
   
 Time(scf)  user:     2069.0  user+sys:     2091.0  wallclock:     3005.6
  
  start of program sole
  
    SCRF                   solvation energy
  iteration          Hartrees            kcal/mol
     0               0.0000000            0.0000
     1              -0.0141072           -8.8524
     2              -0.0149860           -9.4038
     3              -0.0152021           -9.5394
  
  solvation energy not yet converged... 
  
  Peak memory usage:    634 Mb
  
  end of program sole
   
 Time(sole)  user:        0.0  user+sys:        0.0  wallclock:        0.2
  
  start of program ch
  
  gridpoints used for charge fit        15793
    out of a possible maximum of        15793
  
   Electrostatic potential fitting constrained to reproduce
     total charge:                yes
     dipole moment:               no 
     traceless quadrupole moment: no 
     traceless octapole moment:   no 
  
  Atomic charges from electrostatic potential: 
   
 Atom       C1           C2           C3           C4           C5      
 Charge   -0.08817      0.02393     -0.18236      0.14579     -0.09042
   
 Atom       C6           C7           C8           C9           C10     
 Charge   -0.20289     -0.30705     -0.10460      0.14868     -0.06574
   
 Atom       C11          O12          Si13         C14          C15     
 Charge    0.07815     -0.35545     -0.14562      0.15394      0.19095
   
 Atom       C16          C17          C18          C19          C20     
 Charge    0.17027     -0.17243     -0.35520     -0.22215     -0.01222
   
 Atom       Si21         O22          C23          C24          P25     
 Charge   -0.01924     -0.24231     -0.16640     -0.09921      0.91051
   
 Atom       O26          O27          C28          C29          C30     
 Charge   -0.55258     -0.59595      0.36281      0.18351      0.15103
   
 Atom       C31          C32          C33          C34          C35     
 Charge    0.06782     -0.00614      0.08806     -0.33703     -0.28002
   
 Atom       C36          C37          C38          C39          C40     
 Charge   -0.18258     -0.22786     -0.16313     -0.21591     -0.06049
   
 Atom       C41          C42          C43          C44          C45     
 Charge    0.01331     -0.08646     -0.04680     -0.23350     -0.09676
   
 Atom       C46          C47          C48          C49          C50     
 Charge   -0.07267     -0.15142     -0.08016     -0.12139     -0.15343
   
 Atom       C51          C52          C53          C54          C55     
 Charge   -0.08802     -0.13561     -0.16116     -0.05607     -0.26913
   
 Atom       C56          C57          C58          C59          C60     
 Charge   -0.04473     -0.21404     -0.16044     -0.09871     -0.17844
   
 Atom       C61          C62          C63          C64          C65     
 Charge   -0.10349     -0.13211     -0.10055     -0.13998     -0.15358
   
 Atom       C66          C67          C68          C69          C70     
 Charge    0.10592      0.02487     -0.08156     -0.15449     -0.05043
   
 Atom       N71          S72          O73          O74          C75     
 Charge   -0.42400      0.77350     -0.48922     -0.40985      0.27665
   
 Atom       C76          C77          C78          C79          N80     
 Charge   -0.30304      0.09467     -0.23378      0.14801     -0.26479
   
 Atom       N81          C82          C83          C84          C85     
 Charge   -0.05570     -0.15002     -0.09527     -0.26571      0.08801
   
 Atom       H86          H87          H88          H89          H90     
 Charge    0.09438      0.14076      0.13249      0.15649      0.12543
   
 Atom       H91          H92          H93          H94          H95     
 Charge    0.12581      0.18434      0.14121      0.13893      0.12175
   
 Atom       H96          H97          H98          H99          H100    
 Charge    0.38385      0.16395      0.14571      0.12442      0.11661
   
 Atom       H101         H102         H103         H104         H105    
 Charge    0.10616      0.13565      0.09187      0.07870      0.11155
   
 Atom       H106         H107         H108         H109         H110    
 Charge    0.05312      0.15295      0.04122      0.09596      0.11536
   
 Atom       H111         H112         H113         H114         H115    
 Charge    0.11788      0.12264      0.12760      0.11780      0.12502
   
 Atom       H116         H117         H118         H119         H120    
 Charge    0.12901      0.08193      0.16016      0.11374      0.12948
   
 Atom       H121         H122         H123         H124         H125    
 Charge    0.12663      0.12067      0.13545      0.12221      0.12298
   
 Atom       H126         H127         H128         H129         H130    
 Charge    0.09035      0.14025      0.12393      0.02337      0.10357
   
 Atom       H131         H132         H133         H134         H135    
 Charge    0.13796      0.17226      0.15577      0.10528      0.13006
   
 Atom       H136         H137         H138         H139         H140    
 Charge    0.08204      0.29029      0.19787      0.14259      0.18025
   
 Atom       H141    
 Charge    0.10155
  
  sum of atomic charges:     0.000000
   
 RMS Error   8.98E-04 hartrees
 
  Peak memory usage:    583 Mb
  
  end of program ch
   
 Time(ch)  user:       18.0  user+sys:       19.0  wallclock:       21.7
  
  start of program post
  
  Writing input files for PBF
  Peak memory usage:    534 Mb
  
  end of program post
   
 Time(post)  user:        0.0  user+sys:        0.0  wallclock:        0.3

  start of program pbf

Pbf Version 4.00

Molecular surface area:      787.05252   [A2]
Reaction field energy:       -15.34068   [kT]
  Peak memory usage: 556 Mb

  end of program pbf

 Time(pbf)  user:        9.4  user+sys:        9.5  wallclock:        9.8
  
  start of program solv
  
   number of surface charges from PBF   12854
   sum of surface charges     -0.00028
   
  nuclear repulsion energy.......   17588.940367068 hartrees
  Peak memory usage:    694 Mb
  
  end of program solv
   
 Time(solv)  user:       36.0  user+sys:       36.0  wallclock:       38.5
  
  start of program scf
  
  
       i  u  d  i  g                   
       t  p  i  c  r                                 RMS    maximum
       e  d  i  u  i                       energy  density   DIIS  
       r  t  s  t  d       total energy    change  change    error 
  
etot    1  N  N  1  U   -4711.54450072956           8.5E-07  1.5E-05
etot    2  N  N  1  U   -4711.54450054969 -1.8E-07  0.0E+00  0.0E+00
  
  
 Energy components, in hartrees:
   (A)  Total zero-electron terms....   17590.68914100200
   (B)    Nuclear-nuclear............   17588.94036706817
   (C)    Nuclear-solvent............       1.74877393383
   (E)  Total one-electron terms.....  -41523.47191079781
   (F)    Electron-nuclear...........  -46196.13250157813
   (G)    Electron-solvent...........      -1.78111874619
   (H)    Kinetic....................    4674.44170952652
   (I)  Total two-electron terms.....   19221.23826924612
   (J)    Coulomb....................   19796.35733693396
   (K)    Exchange+Correlation.......    -575.11906768784
   (L)  Electronic energy............  -22302.23364155169  (E+I)
   (N)  Total quantum mech. energy...   -4711.54450054969  (A+L)
   (O)  Gas phase energy.............   -4711.51314763933
   (P)  Solution phase energy........   -4711.52832814351  (Q+R+S)
   (Q)    Total solute energy........   -4711.51215573733  (N-C-G)
   (R)    Total solvent energy.......      -0.01617240618  (C/2+G/2)
   (S)    Solute cavity energy.......       0.00000000000
   (U)  Reorganization energy........       0.00099190200  (Q-O)
   (V)  Solvation energy.............      -0.01518050418  (P-O)
  
 SCFE:  Solution phase energy: DFT(b3lyp)      -4711.52832814351 hartrees
        SCF iterations:   2
  
 
 HOMO energy:    -0.20700
 LUMO energy:    -0.08587
 
  Orbital energies (hartrees): 
   -89.11384   -77.21666   -66.11454   -66.10480   -19.17783   -19.17642
   -19.15153   -19.14862   -19.09952   -19.09050   -14.37901   -14.36872
   -14.35043   -10.28346   -10.26125   -10.25235   -10.25181   -10.24339
   -10.23602   -10.23094   -10.22197   -10.22067   -10.21340   -10.21212
   -10.20710   -10.20595   -10.20417   -10.20341   -10.20047   -10.20037
   -10.20000   -10.19930   -10.19893   -10.19831   -10.19809   -10.19615
   -10.19482   -10.19467   -10.19415   -10.19393   -10.19270   -10.19225
   -10.19059   -10.19026   -10.18974   -10.18948   -10.18908   -10.18865
   -10.18813   -10.18798   -10.18791   -10.18725   -10.18709   -10.18708
   -10.18701   -10.18608   -10.18599   -10.18456   -10.18429   -10.18273
   -10.18185   -10.18024   -10.18016   -10.18014   -10.17971   -10.17803
   -10.17753   -10.17666   -10.17513   -10.17439   -10.17432   -10.17410
   -10.17404   -10.17393   -10.17314   -10.17303   -10.17284   -10.17264
   -10.17109   -10.16910   -10.16826   -10.16573   -10.16559   -10.15909
   -10.15734    -8.14050    -6.66085    -6.10550    -6.10442    -6.10331
    -5.26085    -5.25165    -4.82582    -4.82434    -4.82237    -3.61985
    -3.61951    -3.61922    -3.61075    -3.61027    -3.60986    -1.11551
    -1.08780    -1.04471    -1.00484    -0.99027    -0.97077    -0.96604
    -0.94602    -0.92372    -0.87440    -0.86439    -0.86089    -0.84367
    -0.84036    -0.83656    -0.83165    -0.82758    -0.82341    -0.82003
    -0.81803    -0.80875    -0.79726    -0.78992    -0.78945    -0.77431
    -0.75567    -0.75413    -0.74883    -0.74369    -0.74152    -0.74073
    -0.73929    -0.73588    -0.73580    -0.73440    -0.73213    -0.73134
    -0.72863    -0.72730    -0.72716    -0.72499    -0.72252    -0.71839
    -0.70815    -0.70641    -0.66162    -0.64831    -0.64615    -0.62468
    -0.62151    -0.61552    -0.61018    -0.60742    -0.60534    -0.60115
    -0.59844    -0.59329    -0.59224    -0.59153    -0.59021    -0.58860
    -0.58655    -0.58257    -0.58218    -0.58164    -0.57838    -0.57759
    -0.57504    -0.57410    -0.56993    -0.56517    -0.56224    -0.55660
    -0.53991    -0.53282    -0.53168    -0.52255    -0.51867    -0.51671
    -0.50727    -0.50452    -0.50395    -0.50242    -0.50016    -0.49879
    -0.49732    -0.49252    -0.48496    -0.48478    -0.47395    -0.47217
    -0.46745    -0.46430    -0.46221    -0.46124    -0.45698    -0.45408
    -0.45167    -0.44965    -0.44826    -0.44636    -0.44451    -0.44335
    -0.44214    -0.43940    -0.43923    -0.43717    -0.43503    -0.43416
    -0.43336    -0.43006    -0.42912    -0.42860    -0.42795    -0.42695
    -0.42440    -0.42395    -0.42327    -0.42245    -0.42077    -0.41971
    -0.41816    -0.41639    -0.41531    -0.41392    -0.41221    -0.40929
    -0.40883    -0.40664    -0.40457    -0.40337    -0.40149    -0.39841
    -0.39428    -0.39315    -0.38953    -0.38373    -0.38290    -0.38040
    -0.37800    -0.37474    -0.37321    -0.37258    -0.36606    -0.36463
    -0.36066    -0.35858    -0.35823    -0.35515    -0.35406    -0.35161
    -0.35032    -0.34871    -0.34643    -0.34294    -0.34170    -0.33859
    -0.33789    -0.33607    -0.33568    -0.33487    -0.32972    -0.32814
    -0.32740    -0.32562    -0.32402    -0.32022    -0.31856    -0.31686
    -0.31595    -0.31321    -0.30957    -0.30298    -0.30275    -0.30037
    -0.29305    -0.29185    -0.28944    -0.28801    -0.28569    -0.28049
    -0.27916    -0.27781    -0.27630    -0.27210    -0.27150    -0.26686
    -0.25801    -0.25647    -0.25542    -0.25027    -0.24921    -0.24826
    -0.24647    -0.24481    -0.24427    -0.23878    -0.23868    -0.23683
    -0.23486    -0.23204    -0.23076    -0.22708    -0.22659    -0.22393
    -0.22026    -0.20700    -0.08587    -0.05062    -0.04478    -0.03303
    -0.02778    -0.01749    -0.01588    -0.01304    -0.00909    -0.00898
 
  Peak memory usage:    839 Mb
  
  end of program scf
   
 Time(scf)  user:      699.0  user+sys:      707.0  wallclock:      752.6
  
  start of program sole
  
    SCRF                   solvation energy
  iteration          Hartrees            kcal/mol
     0               0.0000000            0.0000
     1              -0.0141072           -8.8524
     2              -0.0149860           -9.4038
     3              -0.0152021           -9.5394
     4              -0.0151805           -9.5259
  
  stopping: solvation energy converged
  
  iterations:   4    sfinal:     -9.5259 kcal/mol
  
  Peak memory usage:    634 Mb
  
  end of program sole
   
 Time(sole)  user:        0.0  user+sys:        0.0  wallclock:        0.2
  
  start of program post
  
  Writing input files for PBF
  Peak memory usage:    534 Mb
  
  end of program post
   
 Time(post)  user:        0.0  user+sys:        0.0  wallclock:        0.3

 Total cpu seconds     user:   17384.000   user+sys:   17574.000
  
 Total elapsed time:    28457 seconds

Job B3LYP-SPE-Toru-SiPh3-Type-I-E-7-scan-unrestrained-lower completed on tethys at Fri Nov 25 22:01:33 2016
