Job jag_Toru-SiPh3-NTf-Type-I-E-Sulfonyl-2-chkp-2-scan-unrestrained.SPE started on tethys at Thu Feb 23 13:36:14 2017
jobid: tethys-0-58aee54b

  +--------------------------------------------------------------------+
  |  Jaguar version 9.5, release  11                                   |
  |                                                                    |
  |  Copyright Schrodinger, Inc.                                       |
  |  All Rights Reserved.                                              |
  |                                                                    |
  |  The following have contributed to Jaguar (listed alphabetically): |
  |  Mike Beachy, Art Bochevarov, Dale Braden, Yixiang Cao,            |
  |  Chris Cortis, Rich Friesner, Bill Goddard, Hod Greeley,           |
  |  Tom Hughes, Leif Jacobson, Jean-Marc Langlois,                    |
  |  Daniel Mainz, Rob Murphy, Dean Philipp, Tom Pollard,              |
  |  Murco Ringnalda, Mark Watson, Haoyu Yu.                           |
  |                                                                    |
  |  Use of this program should be acknowledged in publications as:    |
  |                                                                    |
  |  Jaguar, version 9.5, Schrodinger, Inc., New York, NY, 2017.       |
  |                                                                    |
  |  A. D. Bochevarov, E. Harder, T. F. Hughes, J. R. Greenwood,       |
  |  D. A. Braden, D. M. Philipp, D. Rinaldo, M. D. Halls,             |
  |  J. Zhang, R. A. Friesner, "Jaguar: A High-Performance Quantum     |
  |  Chemistry Software Program with Strengths in Life and Materials   |
  |  Sciences", Int. J. Quantum Chem., 2013, 113(18), 2110-2142.       |
  +--------------------------------------------------------------------+
  
  start of program pre
  
  Job name: jag_Toru-SiPh3-NTf-Type-I-E-Sulfonyl-2-chkp-2-scan-unrestrained.SPE
  Executables used: /usr/local/shared/schrodinger/current/jaguar-v9.5/bin/Linux-x86_64
  Temporary files : /scratch/ab2144/jag_Toru-SiPh3-NTf-Type-I-E-Sulfonyl-2-chkp-2-scan-unrestrained.SPE
  Maestro file (input):  jag_Toru-SiPh3-NTf-Type-I-E-Sulfonyl-2-chkp-2-scan-unrestrained.SPE.mae
  Maestro file (output): jag_Toru-SiPh3-NTf-Type-I-E-Sulfonyl-2-chkp-2-scan-unrestrained.SPE.01.mae
  
  basis set:             6-31g**                         
  net molecular charge:    0
  multiplicity:            1
  
  keygrid settings 
    wispc.....   7.500E-01
    ldens.....   0
    denspc....   7.500E-01
  
   grid     daf set  nls  grid set  Q type
  ------    -------  ---  --------  ------
  coarse       1      1       1        1
  medium       2      2       2        1
  fine         3      2       3        0
  ultrafine    4      2       4        1
  charge       0      1      -1        1
  gradient     5      2       4        1
  density      0      1       0        0
  DFT-fine     0      1     -13        0
  DFT-med.     0      1     -13        0
  DFT-grad     0      1     -13        0
  DFT-der2     0      1       0        0
  DFT-cphf     0      1       0        0
  LMP2-enrg    4      2       4        1
  LMP2-grad    5      2       2        1
  DFT-cphf2    0      1       0        0
  PBF-dens     0      1       0        0
  plotting     0      1       0        0
  Rel-grad     0      1     -17        0
  
  idftgrdm  100
  ndftgrdm   50    0    0
  idftgrdf  111
  ndftgrdf   85    0    0
  idftgrdg  111
  ndftgrdg   80    3    0
  idftgrdu  433
  ndftgrdu  105    0    0
  idftgrdd  433
  ndftgrdd  105    0    0
  idftgrdc  433
  ndftgrdc   26    0    0
  idftgrdp  433
  ndftgrdp   18    0    0
  
  number of basis functions....         1680
  
 Input geometry:
                                   angstroms
  atom               x                 y                 z
  C1            0.1545000000     -5.9788000000     -1.0915000000 
  C2           -0.8446000000     -4.8819000000     -0.9695000000 
  C3           -0.1768000000     -7.1322000000     -1.6835000000 
  C4           -2.0757000000     -5.0544000000     -1.4974000000 
  C5           -0.5007000000     -3.5825000000     -0.3195000000 
  C6           -2.4345000000     -6.3373000000     -2.1457000000 
  C7           -3.0737000000     -3.9724000000     -1.4095000000 
  C8           -1.5339000000     -7.3224000000     -2.2300000000 
  C9           -1.3540000000     -2.5378000000     -0.4215000000 
  C10           0.7631000000     -3.4281000000      0.4411000000 
  C11          -2.7518000000     -2.7854000000     -0.8716000000 
  O12          -1.0165000000     -1.3057000000      0.0883000000 
  Si13         -4.0810000000     -1.4998000000     -0.6144000000 
  C14           1.0474000000     -4.1725000000      1.5348000000 
  C15           1.7428000000     -2.4208000000     -0.0379000000 
  C16           2.3876000000     -4.0648000000      2.1643000000 
  C17           0.0725000000     -5.1035000000      2.1577000000 
  C18           3.3051000000     -3.2319000000      1.6579000000 
  C19           2.6906000000     -4.9095000000      3.3363000000 
  C20           2.9797000000     -2.3724000000      0.4980000000 
  Si21          4.3209000000     -1.2360000000     -0.1243000000 
  O22           1.3772000000     -1.5800000000     -1.0567000000 
  C23           0.4155000000     -5.8320000000      3.2267000000 
  C24           1.7632000000     -5.7380000000      3.8284000000 
  P25           0.2119000000     -0.5055000000     -0.6617000000 
  O26          -0.2115000000      0.1611000000     -1.9356000000 
  N27           0.8872000000      0.4185000000      0.4982000000 
  C28          -3.7103000000     -0.0569000000     -1.7227000000 
  C29          -5.7467000000     -2.2047000000     -1.0507000000 
  C30          -4.2313000000     -1.0185000000      1.1784000000 
  C31           4.5993000000      0.1345000000      1.1081000000 
  C32           5.8524000000     -2.2862000000     -0.2931000000 
  C33           3.8787000000     -0.4938000000     -1.7772000000 
  C34          -3.7862000000      1.2106000000     -1.2839000000 
  C35          -3.4288000000     -0.3179000000     -3.1547000000 
  C36          -6.4954000000     -1.6887000000     -2.0405000000 
  C37          -6.2719000000     -3.3413000000     -0.2559000000 
  C38          -5.1907000000     -0.1572000000      1.5580000000 
  C39          -3.3737000000     -1.6490000000      2.2130000000 
  C40           3.8826000000      0.2104000000      2.2426000000 
  C41           5.6105000000      1.1796000000      0.8173000000 
  C42           5.7814000000     -3.4743000000     -0.9190000000 
  C43           7.1400000000     -1.8671000000      0.3158000000 
  C44           3.4676000000      0.7824000000     -1.8600000000 
  C45           3.8984000000     -1.3274000000     -3.0048000000 
  C46          -3.6702000000      2.3313000000     -2.2382000000 
  C47          -3.4469000000      2.0897000000     -3.5352000000 
  C48          -3.3001000000      0.7010000000     -4.0124000000 
  C49          -7.8217000000     -2.2652000000     -2.3458000000 
  C50          -8.2864000000     -3.2968000000     -1.6311000000 
  C51          -7.4742000000     -3.8597000000     -0.5337000000 
  C52          -5.3521000000      0.2005000000      2.9816000000 
  C53          -4.5524000000     -0.3448000000      3.9048000000 
  C54          -3.5212000000     -1.3210000000      3.5024000000 
  C55           4.1191000000      1.3116000000      3.1999000000 
  C56           5.0432000000      2.2424000000      2.9379000000 
  C57           5.8270000000      2.1715000000      1.6896000000 
  C58           6.9804000000     -4.3285000000     -1.0422000000 
  C59           8.1423000000     -3.9330000000     -0.5112000000 
  C60           8.2237000000     -2.6459000000      0.2066000000 
  C61           3.0705000000      1.3574000000     -3.1608000000 
  C62           3.0984000000      0.6032000000     -4.2641000000 
  C63           3.5287000000     -0.8060000000     -4.1813000000 
  C64           4.1306000000      4.1195000000     -1.0963000000 
  C65           2.8213000000      4.1757000000     -0.6231000000 
  C66           1.8445000000      4.8537000000     -1.3695000000 
  C67           2.2006000000      5.4366000000     -2.5991000000 
  C68           3.5069000000      5.3549000000     -3.0741000000 
  C69           4.4780000000      4.6996000000     -2.3177000000 
  C70           0.4656000000      5.0960000000     -0.8809000000 
  N71           0.1708000000      4.9967000000      0.4618000000 
  S72          -1.0544000000      6.0169000000      1.1041000000 
  O73          -0.4420000000      6.9466000000      2.0435000000 
  O74          -1.7961000000      6.5102000000     -0.0683000000 
  C75          -2.1336000000      4.8806000000      2.0143000000 
  C76          -3.3507000000      4.5002000000      1.4560000000 
  C77          -4.1598000000      3.6723000000      2.2349000000 
  C78          -3.7139000000      3.2904000000      3.4975000000 
  C79          -2.4636000000      3.7316000000      3.9364000000 
  N80          -1.6761000000      4.5238000000      3.2046000000 
  N81          -0.1840000000      2.7627000000     -2.4838000000 
  C82          -0.0838000000      2.9628000000     -3.7932000000 
  C83          -0.6744000000      4.2046000000     -4.1380000000 
  C84          -1.1808000000      4.7329000000     -2.9691000000 
  C85          -0.7899000000      3.8760000000     -1.8764000000 
  H86           1.1609000000     -5.8541000000     -0.7144000000 
  H87           0.5529000000     -7.9269000000     -1.7701000000 
  H88          -3.4272000000     -6.4821000000     -2.5537000000 
  H89          -4.0741000000     -4.1665000000     -1.7709000000 
  H90          -1.7962000000     -8.2592000000     -2.7046000000 
  H91          -0.9345000000     -5.1947000000      1.7719000000 
  H92           4.2877000000     -3.1668000000      2.1109000000 
  H93           3.6660000000     -4.8634000000      3.8059000000 
  H94          -0.3102000000     -6.5023000000      3.6694000000 
  H95           1.9981000000     -6.3506000000      4.6893000000 
  H96          -3.9797000000      1.4380000000     -0.2464000000 
  H97          -3.3386000000     -1.3351000000     -3.5150000000 
  H98          -6.1518000000     -0.8469000000     -2.6249000000 
  H99          -5.6826000000     -3.7581000000      0.5515000000 
  H100         -5.8621000000      0.2820000000      0.8304000000 
  H101         -2.6384000000     -2.3931000000      1.9450000000 
  H102          3.1235000000     -0.5224000000      2.4769000000 
  H103          6.1776000000      1.1453000000     -0.1046000000 
  H104          4.8445000000     -3.8371000000     -1.3209000000 
  H105          7.2186000000     -0.9411000000      0.8640000000 
  H106          3.3860000000      1.3965000000     -0.9760000000 
  H107          4.1977000000     -2.3633000000     -2.9628000000 
  H108         -3.7821000000      3.3489000000     -1.8870000000 
  H109         -3.3721000000      2.9103000000     -4.2364000000 
  H110         -3.1010000000      0.5095000000     -5.0588000000 
  H111         -8.4168000000     -1.8490000000     -3.1483000000 
  H112         -9.2579000000     -3.7188000000     -1.8536000000 
  H113         -7.8546000000     -4.6909000000      0.0458000000 
  H114         -6.1169000000      0.9080000000      3.2744000000 
  H115         -4.6666000000     -0.0804000000      4.9480000000 
  H116         -2.8945000000     -1.7817000000      4.2550000000 
  H117          3.5454000000      1.3622000000      4.1157000000 
  H118          5.2168000000      3.0490000000      3.6382000000 
  H119          6.5678000000      2.9310000000      1.4759000000 
  H120          6.9144000000     -5.2765000000     -1.5602000000 
  H121          9.0213000000     -4.5584000000     -0.5984000000 
  H122          9.1607000000     -2.3384000000      0.6528000000 
  H123          2.7492000000      2.3878000000     -3.2178000000 
  H124          2.8016000000      1.0221000000     -5.2169000000 
  H125          3.5398000000     -1.4176000000     -5.0742000000 
  H126          4.8890000000      3.6171000000     -0.5092000000 
  H127          2.5692000000      3.7032000000      0.3204000000 
  H128          1.4521000000      5.9741000000     -3.1716000000 
  H129          3.7670000000      5.8156000000     -4.0222000000 
  H130          5.5022000000      4.6433000000     -2.6737000000 
  H131          0.0398000000      6.0047000000     -1.2856000000 
  H132         -3.6465000000      4.8463000000      0.4736000000 
  H133         -5.1217000000      3.3366000000      1.8602000000 
  H134         -4.3184000000      2.6622000000      4.1416000000 
  H135         -2.0789000000      3.4382000000      4.9088000000 
  H136         -0.0597000000      1.8085000000     -2.0647000000 
  H137          0.3683000000      2.2170000000     -4.4332000000 
  H138         -0.7179000000      4.6264000000     -5.1318000000 
  H139         -1.7066000000      5.6692000000     -2.8388000000 
  H140         -1.3999000000      3.6559000000     -1.0101000000 
  S141          0.1177000000      1.4524000000      1.3932000000 
  O142         -1.2448000000      1.8200000000      0.9497000000 
  C143         -0.1154000000      0.5556000000      3.0337000000 
  O144          1.0018000000      2.5924000000      1.7577000000 
  F145         -0.3667000000     -0.7408000000      2.8286000000 
  F146          0.9798000000      0.6642000000      3.7874000000 
  F147         -1.1500000000      1.0886000000      3.7018000000 
  H148          0.4925000000      4.2063000000      1.0465000000 
   
  principal moments of inertia:
        amu*angstrom^2:    22051.16934    23311.93237    32584.66165
                g*cm^2: 3.66168236E-36 3.87103696E-36 5.41080969E-36
   
  rotational constants:
               cm^(-1):      0.00076448      0.00072313      0.00051735
                   GHz:      0.02291847      0.02167898      0.01550972
   
  Molecular weight:    1308.28 amu
   
  Stoichiometry: Si2C73PN4H56S2O7F3
[running at reduced cpu priority]
  Molecular Point Group: C1      
  Point Group used: C1
  
  nuclear repulsion energy.......   20814.102833410 hartrees
 
 Non-default options chosen:
   SCF calculation type: DFT(m06-2x)                 
   DFT=M06-2X
   Solvation energy will be computed using PBF
     -solute cavity energy will not be included
     -surface area terms will not be included
   Highest accuracy cutoffs used in SCF
   Solvent: other                                                           
   Internal dielectric constant:    1.000
   Continuum dielectric constant:   2.380
   Solvent probe molecule radius:   2.760
  
 Temporary integer options set:
     73=  2
  
  atom       vdw   vdw2    cov     mass  grid  daf  charge   basis
  C1        1.949  1.900  0.770   12.000    Y    Y      Y    6-31g**
  C2        1.949  1.900  0.770   12.000    Y    Y      Y    6-31g**
  C3        1.949  1.900  0.770   12.000    Y    Y      Y    6-31g**
  C4        1.949  1.900  0.770   12.000    Y    Y      Y    6-31g**
  C5        1.949  1.900  0.770   12.000    Y    Y      Y    6-31g**
  C6        1.949  1.900  0.770   12.000    Y    Y      Y    6-31g**
  C7        1.949  1.900  0.770   12.000    Y    Y      Y    6-31g**
  C8        1.949  1.900  0.770   12.000    Y    Y      Y    6-31g**
  C9        1.949  1.900  0.770   12.000    Y    Y      Y    6-31g**
  C10       1.949  1.900  0.770   12.000    Y    Y      Y    6-31g**
  C11       1.949  1.900  0.770   12.000    Y    Y      Y    6-31g**
  O12       1.702  1.600  0.730   15.995    Y    Y      Y    6-31g**
  Si13      2.217  2.147  1.110   27.977    Y    Y      Y    6-31g**
  C14       1.949  1.900  0.770   12.000    Y    Y      Y    6-31g**
  C15       1.949  1.900  0.770   12.000    Y    Y      Y    6-31g**
  C16       1.949  1.900  0.770   12.000    Y    Y      Y    6-31g**
  C17       1.949  1.900  0.770   12.000    Y    Y      Y    6-31g**
  C18       1.949  1.900  0.770   12.000    Y    Y      Y    6-31g**
  C19       1.949  1.900  0.770   12.000    Y    Y      Y    6-31g**
  C20       1.949  1.900  0.770   12.000    Y    Y      Y    6-31g**
  Si21      2.217  2.147  1.110   27.977    Y    Y      Y    6-31g**
  O22       1.702  1.600  0.730   15.995    Y    Y      Y    6-31g**
  C23       1.949  1.900  0.770   12.000    Y    Y      Y    6-31g**
  C24       1.949  1.900  0.770   12.000    Y    Y      Y    6-31g**
  P25       2.147  2.074  1.060   30.974    Y    Y      Y    6-31g**
  O26       1.702  1.600  0.730   15.995    Y    Y      Y    6-31g**
  N27       1.831  1.600  0.750   14.003    Y    Y      Y    6-31g**
  C28       1.949  1.900  0.770   12.000    Y    Y      Y    6-31g**
  C29       1.949  1.900  0.770   12.000    Y    Y      Y    6-31g**
  C30       1.949  1.900  0.770   12.000    Y    Y      Y    6-31g**
  C31       1.949  1.900  0.770   12.000    Y    Y      Y    6-31g**
  C32       1.949  1.900  0.770   12.000    Y    Y      Y    6-31g**
  C33       1.949  1.900  0.770   12.000    Y    Y      Y    6-31g**
  C34       1.949  1.900  0.770   12.000    Y    Y      Y    6-31g**
  C35       1.949  1.900  0.770   12.000    Y    Y      Y    6-31g**
  C36       1.949  1.900  0.770   12.000    Y    Y      Y    6-31g**
  C37       1.949  1.900  0.770   12.000    Y    Y      Y    6-31g**
  C38       1.949  1.900  0.770   12.000    Y    Y      Y    6-31g**
  C39       1.949  1.900  0.770   12.000    Y    Y      Y    6-31g**
  C40       1.949  1.900  0.770   12.000    Y    Y      Y    6-31g**
  C41       1.949  1.900  0.770   12.000    Y    Y      Y    6-31g**
  C42       1.949  1.900  0.770   12.000    Y    Y      Y    6-31g**
  C43       1.949  1.900  0.770   12.000    Y    Y      Y    6-31g**
  C44       1.949  1.900  0.770   12.000    Y    Y      Y    6-31g**
  C45       1.949  1.900  0.770   12.000    Y    Y      Y    6-31g**
  C46       1.949  1.900  0.770   12.000    Y    Y      Y    6-31g**
  C47       1.949  1.900  0.770   12.000    Y    Y      Y    6-31g**
  C48       1.949  1.900  0.770   12.000    Y    Y      Y    6-31g**
  C49       1.949  1.900  0.770   12.000    Y    Y      Y    6-31g**
  C50       1.949  1.900  0.770   12.000    Y    Y      Y    6-31g**
  C51       1.949  1.900  0.770   12.000    Y    Y      Y    6-31g**
  C52       1.949  1.900  0.770   12.000    Y    Y      Y    6-31g**
  C53       1.949  1.900  0.770   12.000    Y    Y      Y    6-31g**
  C54       1.949  1.900  0.770   12.000    Y    Y      Y    6-31g**
  C55       1.949  1.900  0.770   12.000    Y    Y      Y    6-31g**
  C56       1.949  1.900  0.770   12.000    Y    Y      Y    6-31g**
  C57       1.949  1.900  0.770   12.000    Y    Y      Y    6-31g**
  C58       1.949  1.900  0.770   12.000    Y    Y      Y    6-31g**
  C59       1.949  1.900  0.770   12.000    Y    Y      Y    6-31g**
  C60       1.949  1.900  0.770   12.000    Y    Y      Y    6-31g**
  C61       1.949  1.900  0.770   12.000    Y    Y      Y    6-31g**
  C62       1.949  1.900  0.770   12.000    Y    Y      Y    6-31g**
  C63       1.949  1.900  0.770   12.000    Y    Y      Y    6-31g**
  C64       1.949  1.900  0.770   12.000    Y    Y      Y    6-31g**
  C65       1.949  1.900  0.770   12.000    Y    Y      Y    6-31g**
  C66       1.949  1.900  0.770   12.000    Y    Y      Y    6-31g**
  C67       1.949  1.900  0.770   12.000    Y    Y      Y    6-31g**
  C68       1.949  1.900  0.770   12.000    Y    Y      Y    6-31g**
  C69       1.949  1.900  0.770   12.000    Y    Y      Y    6-31g**
  C70       1.949  1.900  0.770   12.000    Y    Y      Y    6-31g**
  N71       1.831  1.600  0.750   14.003    Y    Y      Y    6-31g**
  S72       2.070  1.900  1.020   31.972    Y    Y      Y    6-31g**
  O73       1.702  1.600  0.730   15.995    Y    Y      Y    6-31g**
  O74       1.702  1.600  0.730   15.995    Y    Y      Y    6-31g**
  C75       1.949  1.900  0.770   12.000    Y    Y      Y    6-31g**
  C76       1.949  1.900  0.770   12.000    Y    Y      Y    6-31g**
  C77       1.949  1.900  0.770   12.000    Y    Y      Y    6-31g**
  C78       1.949  1.900  0.770   12.000    Y    Y      Y    6-31g**
  C79       1.949  1.900  0.770   12.000    Y    Y      Y    6-31g**
  N80       1.831  1.600  0.750   14.003    Y    Y      Y    6-31g**
  N81       1.831  1.600  0.750   14.003    Y    Y      Y    6-31g**
  C82       1.949  1.900  0.770   12.000    Y    Y      Y    6-31g**
  C83       1.949  1.900  0.770   12.000    Y    Y      Y    6-31g**
  C84       1.949  1.900  0.770   12.000    Y    Y      Y    6-31g**
  C85       1.949  1.900  0.770   12.000    Y    Y      Y    6-31g**
  H86       1.597  1.150  0.320    1.008    Y    Y      Y    6-31g**
  H87       1.597  1.150  0.320    1.008    Y    Y      Y    6-31g**
  H88       1.597  1.150  0.320    1.008    Y    Y      Y    6-31g**
  H89       1.597  1.150  0.320    1.008    Y    Y      Y    6-31g**
  H90       1.597  1.150  0.320    1.008    Y    Y      Y    6-31g**
  H91       1.597  1.150  0.320    1.008    Y    Y      Y    6-31g**
  H92       1.597  1.150  0.320    1.008    Y    Y      Y    6-31g**
  H93       1.597  1.150  0.320    1.008    Y    Y      Y    6-31g**
  H94       1.597  1.150  0.320    1.008    Y    Y      Y    6-31g**
  H95       1.597  1.150  0.320    1.008    Y    Y      Y    6-31g**
  H96       1.597  1.150  0.320    1.008    Y    Y      Y    6-31g**
  H97       1.597  1.150  0.320    1.008    Y    Y      Y    6-31g**
  H98       1.597  1.150  0.320    1.008    Y    Y      Y    6-31g**
  H99       1.597  1.150  0.320    1.008    Y    Y      Y    6-31g**
  H100      1.597  1.150  0.320    1.008    Y    Y      Y    6-31g**
  H101      1.597  1.150  0.320    1.008    Y    Y      Y    6-31g**
  H102      1.597  1.150  0.320    1.008    Y    Y      Y    6-31g**
  H103      1.597  1.150  0.320    1.008    Y    Y      Y    6-31g**
  H104      1.597  1.150  0.320    1.008    Y    Y      Y    6-31g**
  H105      1.597  1.150  0.320    1.008    Y    Y      Y    6-31g**
  H106      1.597  1.150  0.320    1.008    Y    Y      Y    6-31g**
  H107      1.597  1.150  0.320    1.008    Y    Y      Y    6-31g**
  H108      1.597  1.150  0.320    1.008    Y    Y      Y    6-31g**
  H109      1.597  1.150  0.320    1.008    Y    Y      Y    6-31g**
  H110      1.597  1.150  0.320    1.008    Y    Y      Y    6-31g**
  H111      1.597  1.150  0.320    1.008    Y    Y      Y    6-31g**
  H112      1.597  1.150  0.320    1.008    Y    Y      Y    6-31g**
  H113      1.597  1.150  0.320    1.008    Y    Y      Y    6-31g**
  H114      1.597  1.150  0.320    1.008    Y    Y      Y    6-31g**
  H115      1.597  1.150  0.320    1.008    Y    Y      Y    6-31g**
  H116      1.597  1.150  0.320    1.008    Y    Y      Y    6-31g**
  H117      1.597  1.150  0.320    1.008    Y    Y      Y    6-31g**
  H118      1.597  1.150  0.320    1.008    Y    Y      Y    6-31g**
  H119      1.597  1.150  0.320    1.008    Y    Y      Y    6-31g**
  H120      1.597  1.150  0.320    1.008    Y    Y      Y    6-31g**
  H121      1.597  1.150  0.320    1.008    Y    Y      Y    6-31g**
  H122      1.597  1.150  0.320    1.008    Y    Y      Y    6-31g**
  H123      1.597  1.150  0.320    1.008    Y    Y      Y    6-31g**
  H124      1.597  1.150  0.320    1.008    Y    Y      Y    6-31g**
  H125      1.597  1.150  0.320    1.008    Y    Y      Y    6-31g**
  H126      1.597  1.150  0.320    1.008    Y    Y      Y    6-31g**
  H127      1.597  1.150  0.320    1.008    Y    Y      Y    6-31g**
  H128      1.597  1.150  0.320    1.008    Y    Y      Y    6-31g**
  H129      1.597  1.150  0.320    1.008    Y    Y      Y    6-31g**
  H130      1.597  1.150  0.320    1.008    Y    Y      Y    6-31g**
  H131      1.597  1.150  0.320    1.008    Y    Y      Y    6-31g**
  H132      1.597  1.150  0.320    1.008    Y    Y      Y    6-31g**
  H133      1.597  1.150  0.320    1.008    Y    Y      Y    6-31g**
  H134      1.597  1.150  0.320    1.008    Y    Y      Y    6-31g**
  H135      1.597  1.150  0.320    1.008    Y    Y      Y    6-31g**
  H136      1.597  1.150  0.320    1.008    Y    Y      Y    6-31g**
  H137      1.597  1.150  0.320    1.008    Y    Y      Y    6-31g**
  H138      1.597  1.150  0.320    1.008    Y    Y      Y    6-31g**
  H139      1.597  1.150  0.320    1.008    Y    Y      Y    6-31g**
  H140      1.597  1.150  0.320    1.008    Y    Y      Y    6-31g**
  S141      2.070  1.900  1.020   31.972    Y    Y      Y    6-31g**
  O142      1.702  1.600  0.730   15.995    Y    Y      Y    6-31g**
  C143      1.949  1.900  0.770   12.000    Y    Y      Y    6-31g**
  O144      1.702  1.600  0.730   15.995    Y    Y      Y    6-31g**
  F145      1.736  1.682  0.720   18.998    Y    Y      Y    6-31g**
  F146      1.736  1.682  0.720   18.998    Y    Y      Y    6-31g**
  F147      1.736  1.682  0.720   18.998    Y    Y      Y    6-31g**
  H148      1.597  1.150  0.320    1.008    Y    Y      Y    6-31g**
  
  Peak memory usage:    768 Mb
  
  end of program pre
   
 Time(pre)  user:        1.1  user+sys:        1.1  wallclock:        2.3
  
  start of program onee
  
  smallest eigenvalue of S:    2.192E-04
  number of canonical orbitals.....         1673
  Peak memory usage:    900 Mb
  
  end of program onee
   
 Time(onee)  user:       17.4  user+sys:       17.4  wallclock:       24.7
  
  start of program hfig
  
  initial wavefunction generated automatically from atomic wavefunctions
 
  Irreducible     Total no   No of occupied orbitals 
  representation  orbitals   Shell_1  Shell_2    ...
  No Symm         1673        340
  ------------------------
  Orbital occupation/shell    1.000
 
  Peak memory usage:    833 Mb
  
  end of program hfig
   
 Time(hfig)  user:       27.6  user+sys:       27.6  wallclock:       51.1
  
  start of program probe
  
  Peak memory usage:    826 Mb
  
  end of program probe
   
 Time(probe)  user:       20.8  user+sys:       20.8  wallclock:       45.4
  
  start of program grid
  
   grid     grid set  grid #  grid sym
  ------    --------  ------  --------
  coarse        0        0        1
  medium        2        1        1
  fine          0        0        1
  ultrafine     4        2        1
  charge       -1        3        1
  gradient      4        2        1
  density       0        0        1
  DFT-fine    -13        4        1
  DFT-med.    -13        4        1
  DFT-grad    -13        4        1
  DFT-der2      0        0        1
  DFT-cphf      0        0        1
  LMP2-enrg     4        2        1
  LMP2-grad     2        1        1
  DFT-cphf2     0        0        1
  PBF-dens      0        0        1
  plotting      0        0        1
  Rel-grad    -17        0        1
  
  number of gridpoints: 
     atom        C1       C2       C3       C4       C5       C6       C7
  grid # 1       97      101       94      102      100       96       92
  grid # 2      337      360      337      366      358      336      336
  grid # 3       36       30       42       48       16       45       24
  grid # 4    48124    48124    48124    48124    48124    48124    48124
   
  number of gridpoints: 
     atom        C8       C9      C10      C11      O12     Si13      C14
  grid # 1       94       96      100      100      112      472      101
  grid # 2      336      354      356      360      434      472      357
  grid # 3       47       16       10       11       31        7       20
  grid # 4    48124    48124    48124    48124    47716    38542    48124
   
  number of gridpoints: 
     atom       C15      C16      C17      C18      C19      C20     Si21
  grid # 1       98      101       96       92       98      100      481
  grid # 2      359      366      338      330      339      359      481
  grid # 3       21       41       28       16       45        8       11
  grid # 4    48124    48124    48124    48124    48124    48124    38542
   
  number of gridpoints: 
     atom       O22      C23      C24      P25      O26      N27      C28
  grid # 1      112       95       94      449      117      107       99
  grid # 2      438      338      338      449      459      411      361
  grid # 3       68       36       48        7       95       21        7
  grid # 4    47716    48124    48124    38640    47716    47928    48124
   
  number of gridpoints: 
     atom       C29      C30      C31      C32      C33      C34      C35
  grid # 1      100      101      100      101      101       93       93
  grid # 2      358      360      357      361      360      334      331
  grid # 3        9       14        9       20       21       17       10
  grid # 4    48124    48124    48124    48124    48124    48124    48124
   
  number of gridpoints: 
     atom       C36      C37      C38      C39      C40      C41      C42
  grid # 1       92       94       92       96       92       94       92
  grid # 2      337      334      336      339      336      331      335
  grid # 3       26       22       20       23       22        8       23
  grid # 4    48124    48124    48124    48124    48124    48124    48124
   
  number of gridpoints: 
     atom       C43      C44      C45      C46      C47      C48      C49
  grid # 1       97       92       97       93       93       92       94
  grid # 2      340      333      337      332      333      333      335
  grid # 3       36       17       33       21       22       21       44
  grid # 4    48124    48124    48124    48124    48124    48124    48124
   
  number of gridpoints: 
     atom       C50      C51      C52      C53      C54      C55      C56
  grid # 1       94       93       93       93       93       93       93
  grid # 2      335      335      334      335      333      333      333
  grid # 3       46       36       30       31       24       33       34
  grid # 4    48124    48124    48124    48124    48124    48124    48124
   
  number of gridpoints: 
     atom       C57      C58      C59      C60      C61      C62      C63
  grid # 1       92       94       94       94       92       93       93
  grid # 2      333      335      336      337      333      334      336
  grid # 3       20       43       47       45       25       36       39
  grid # 4    48124    48124    48124    48124    48124    48124    48124
   
  number of gridpoints: 
     atom       C64      C65      C66      C67      C68      C69      C70
  grid # 1       96       96       99       96       96       96       92
  grid # 2      330      327      359      335      329      329      318
  grid # 3       29       31       29       31       29       29        7
  grid # 4    48124    48124    48124    48124    48124    48124    48124
   
  number of gridpoints: 
     atom       N71      S72      O73      O74      C75      C76      C77
  grid # 1      101      440      123      119       98       96       96
  grid # 2      352      440      516      484      357      328      330
  grid # 3       20       13      363      181       29       29       33
  grid # 4    47928    48492    47716    47716    48124    48124    48124
   
  number of gridpoints: 
     atom       C78      C79      N80      N81      C82      C83      C84
  grid # 1       96       96      113       96       94       93       93
  grid # 2      331      335      421      347      329      324      325
  grid # 3       35       29       99        8        8        6        6
  grid # 4    48124    48124    47928    47928    48124    48124    48124
   
  number of gridpoints: 
     atom       C85      H86      H87      H88      H89      H90      H91
  grid # 1       91      112      118      118      110      118      112
  grid # 2      324      435      452      446      426      453      434
  grid # 3        6      249      420      361      173      424      221
  grid # 4    48124    48426    48426    48426    48426    48426    48426
   
  number of gridpoints: 
     atom       H92      H93      H94      H95      H96      H97      H98
  grid # 1      112      118      118      118      107      112      111
  grid # 2      428      444      449      450      418      437      436
  grid # 3      213      363      407      417      111      267      234
  grid # 4    48426    48426    48426    48426    48426    48426    48426
   
  number of gridpoints: 
     atom       H99     H100     H101     H102     H103     H104     H105
  grid # 1      112      111      109      109      110      109      110
  grid # 2      436      429      421      423      429      425      429
  grid # 3      264      224      139      139      211      183      221
  grid # 4    48426    48426    48426    48426    48426    48426    48426
   
  number of gridpoints: 
     atom      H106     H107     H108     H109     H110     H111     H112
  grid # 1      105      112      110      112      117      118      118
  grid # 2      414      428      426      438      450      453      453
  grid # 3       72      226      197      285      385      419      425
  grid # 4    48426    48426    48426    48426    48426    48426    48426
   
  number of gridpoints: 
     atom      H113     H114     H115     H116     H117     H118     H119
  grid # 1      118      113      115      115      115      117      115
  grid # 2      452      440      448      446      442      452      446
  grid # 3      420      296      353      336      306      409      344
  grid # 4    48426    48426    48426    48426    48426    48426    48426
   
  number of gridpoints: 
     atom      H120     H121     H122     H123     H124     H125     H126
  grid # 1      118      118      118      107      115      118      109
  grid # 2      452      453      453      420      445      452      424
  grid # 3      417      424      423      112      337      420      149
  grid # 4    48426    48426    48426    48426    48426    48426    48426
   
  number of gridpoints: 
     atom      H127     H128     H129     H130     H131     H132     H133
  grid # 1      108      112      117      117      103      109      114
  grid # 2      418      431      450      449      408      431      438
  grid # 3      144      234      404      396      127      215      281
  grid # 4    48426    48426    48426    48426    48426    48426    48426
   
  number of gridpoints: 
     atom      H134     H135     H136     H137     H138     H139     H140
  grid # 1      111      117      102      111      116      113      104
  grid # 2      433      444      399      439      459      443      409
  grid # 3      222      365       90      226      404      281       59
  grid # 4    48426    48426    48426    48426    48426    48426    48426
   
  number of gridpoints: 
     atom      S141     O142     C143     O144     F145     F146     F147
  grid # 1      434      119       90      116      514      520      520
  grid # 2      434      470      320      460      514      520      520
  grid # 3       12       67        7       71       90      156      102
  grid # 4    48492    47716    48124    47716    47062    47062    47062
   
  number of gridpoints: 
     atom      H148    total
  grid # 1       98    18337
  grid # 2      400    57845
  grid # 3       88    18849
  grid # 4    48426  7104526
   
  Peak memory usage:    795 Mb
  
  end of program grid
   
 Time(grid)  user:     1224.7  user+sys:     1224.7  wallclock:     2728.1
  
  start of program rwr
  
  Peak memory usage:    814 Mb
  
  end of program rwr
   
 Time(rwr)  user:       76.0  user+sys:       76.0  wallclock:      172.2
  
  start of program scf
  
 number of electrons..........        680
 number of alpha electrons....        340
 number of beta electrons.....        340
 number of orbitals, total....       1673
 number of doubly-occ'd orbs..        340
 number of open shell orbs....          0
 number of occupied orbitals..        340
 number of virtual orbitals...       1333
 number of hamiltonians.......          1
 number of shells.............          1
 SCF type: DFT=M06-2X
 Energy computed with NOPS off.
  
       i  u  d  i  g                   
       t  p  i  c  r                                 RMS    maximum
       e  d  i  u  i                       energy  density   DIIS  
       r  t  s  t  d       total energy    change  change    error 
  
etot    1  N  N  1  U   -5562.72021317139           4.0E-03  1.3E-01
etot    2  N  Y  1  U   -5527.19087199414 -3.6E+01  1.6E-02  1.1E-01
etot    3  N  Y  1  U   -5289.69200855784 -2.4E+02  1.5E-02  3.1E-01
etot    4  N  Y  1  U   -5571.36323579531  2.8E+02  2.3E-03  8.2E-02
etot    5  N  Y  1  U   -5572.94115039888  1.6E+00  1.3E-03  7.4E-02
etot    6  N  Y  1  U   -5575.23875504517  2.3E+00  4.3E-04  2.0E-02
etot    7  N  Y  1  U   -5575.50920672821  2.7E-01  1.7E-04  7.7E-03
etot    8  N  Y  1  U   -5575.54207219800  3.3E-02  7.5E-05  4.7E-03
etot    9  N  Y  1  U   -5575.55167626628  9.6E-03  3.1E-05  2.3E-03
etot   10  N  Y  1  U   -5575.55331088378  1.6E-03  1.5E-05  1.1E-03
etot   11  N  Y  1  U   -5575.55373144849  4.2E-04  9.2E-06  4.7E-04
etot   12  N  Y  1  U   -5575.55386536451  1.3E-04  4.3E-06  1.8E-04
etot   13  N  N  1  U   -5575.55389011288  2.5E-05  0.0E+00  0.0E+00
  
  
 Energy components, in hartrees:
   (A)  Nuclear repulsion............   20814.10283341005
   (E)  Total one-electron terms.....  -49154.90705935056
   (F)    Electron-nuclear...........  -54690.89348567049
   (H)    Kinetic....................    5535.98642631994
   (I)  Total two-electron terms.....   22765.25033582763
   (J)    Coulomb....................   23416.49702041486
   (K)    Exchange+Correlation.......    -651.24668458723
   (L)  Electronic energy............  -26389.65672352293  (E+I)
   (M)  -V/T.........................       2.00714731951  (-(A+F+I)/H)
   (N)  Total energy.................   -5575.55389011288  (A+L)
   (O)  Gas phase energy.............   -5575.55389011288
  
 SCFE: SCF energy: DFT(m06-2x)     -5575.55389011288 hartrees   iterations:  13
  
 
 HOMO energy:    -0.25392
 LUMO energy:    -0.06892
 
  Orbital energies (hartrees): 
   -90.17082   -90.15342   -78.20738   -67.00927   -67.00501   -25.29118
   -25.28910   -25.28819   -19.68845   -19.68466   -19.65428   -19.64630
   -19.63000   -19.62775   -19.59984   -14.82872   -14.81458   -14.78588
   -14.73913   -10.80539   -10.66023   -10.63143   -10.62898   -10.62422
   -10.62023   -10.60982   -10.60444   -10.59112   -10.59022   -10.58852
   -10.58367   -10.57958   -10.57776   -10.57206   -10.57073   -10.57069
   -10.56829   -10.56755   -10.56578   -10.56485   -10.56395   -10.56230
   -10.56185   -10.55995   -10.55942   -10.55791   -10.55420   -10.55402
   -10.55368   -10.55356   -10.55313   -10.55302   -10.55271   -10.55251
   -10.55187   -10.55164   -10.55145   -10.55131   -10.55091   -10.55064
   -10.54962   -10.54954   -10.54919   -10.54848   -10.54767   -10.54764
   -10.54739   -10.54704   -10.54699   -10.54633   -10.54597   -10.54576
   -10.54569   -10.54507   -10.54476   -10.54382   -10.54364   -10.54294
   -10.54281   -10.54246   -10.53952   -10.53934   -10.53833   -10.53831
   -10.53747   -10.53633   -10.53444   -10.53397   -10.53025   -10.53023
   -10.52700   -10.52388    -8.48133    -8.46205    -6.98664    -6.40364
    -6.40252    -6.40171    -6.38397    -6.38354    -6.38337    -5.54070
    -5.53605    -5.10513    -5.10401    -5.10254    -3.85053    -3.85022
    -3.84986    -3.84583    -3.84554    -3.84537    -1.45649    -1.36601
    -1.36339    -1.24376    -1.22615    -1.21546    -1.18251    -1.13104
    -1.11839    -1.10125    -1.08341    -1.08049    -1.06188    -0.99091
    -0.98148    -0.97245    -0.96766    -0.94663    -0.94275    -0.94118
    -0.94038    -0.93692    -0.93251    -0.92418    -0.92240    -0.91116
    -0.90849    -0.89694    -0.89047    -0.87889    -0.85399    -0.85333
    -0.84998    -0.84557    -0.84171    -0.83686    -0.83636    -0.83526
    -0.83359    -0.83311    -0.83022    -0.82814    -0.82768    -0.82602
    -0.82591    -0.82494    -0.82378    -0.82278    -0.81793    -0.80309
    -0.80105    -0.76176    -0.75633    -0.73799    -0.72861    -0.71498
    -0.70905    -0.70405    -0.69971    -0.69540    -0.69425    -0.68983
    -0.68772    -0.68277    -0.68144    -0.67994    -0.67916    -0.67829
    -0.67760    -0.67587    -0.67418    -0.67153    -0.67012    -0.66654
    -0.66489    -0.66439    -0.66316    -0.65761    -0.65622    -0.65532
    -0.64910    -0.64757    -0.63545    -0.62520    -0.61434    -0.60912
    -0.60484    -0.60235    -0.59974    -0.58464    -0.58265    -0.58087
    -0.57985    -0.57739    -0.57653    -0.57615    -0.57410    -0.57236
    -0.56243    -0.56135    -0.56003    -0.55777    -0.55355    -0.54826
    -0.54600    -0.54237    -0.53922    -0.53856    -0.53647    -0.53644
    -0.53100    -0.52838    -0.52647    -0.52570    -0.52228    -0.52050
    -0.52023    -0.51786    -0.51707    -0.51445    -0.51287    -0.51127
    -0.51003    -0.50893    -0.50788    -0.50242    -0.50204    -0.50034
    -0.49910    -0.49796    -0.49763    -0.49658    -0.49585    -0.49521
    -0.49430    -0.49280    -0.49139    -0.49039    -0.48963    -0.48817
    -0.48451    -0.48366    -0.48301    -0.48221    -0.48057    -0.48024
    -0.47817    -0.47581    -0.47543    -0.47380    -0.46885    -0.46423
    -0.46063    -0.45510    -0.45404    -0.45208    -0.44929    -0.44891
    -0.44581    -0.44129    -0.43293    -0.43241    -0.43029    -0.42849
    -0.42776    -0.42633    -0.42339    -0.42165    -0.42104    -0.41932
    -0.41729    -0.41709    -0.41477    -0.41146    -0.40755    -0.40318
    -0.40185    -0.40056    -0.39738    -0.39518    -0.39322    -0.39278
    -0.39139    -0.39040    -0.38989    -0.38765    -0.38608    -0.38383
    -0.38230    -0.38062    -0.37883    -0.37629    -0.37307    -0.36559
    -0.36113    -0.35960    -0.35457    -0.35222    -0.34620    -0.34342
    -0.34236    -0.34161    -0.34048    -0.33856    -0.33749    -0.33664
    -0.32973    -0.32727    -0.32254    -0.31901    -0.31425    -0.30765
    -0.30337    -0.30036    -0.29941    -0.29803    -0.29738    -0.29641
    -0.29435    -0.29194    -0.29094    -0.28966    -0.28786    -0.28574
    -0.28431    -0.28307    -0.27354    -0.25392    -0.06892    -0.01966
    -0.01785    -0.00243    -0.00046     0.01193     0.01276     0.01776
     0.01831     0.02152
 
  Peak memory usage:   1028 Mb
  
  end of program scf
   
 Time(scf)  user:    34633.5  user+sys:    34633.5  wallclock:    60250.9
  
  start of program ch
  
  gridpoints used for charge fit        16276
    out of a possible maximum of        18849
  
   Electrostatic potential fitting constrained to reproduce
     total charge:                yes
     dipole moment:               no 
     traceless quadrupole moment: no 
     traceless octapole moment:   no 
  
  Atomic charges from electrostatic potential: 
   
 Atom       C1           C2           C3           C4           C5      
 Charge   -0.09605     -0.01692     -0.18269      0.18720      0.00157
   
 Atom       C6           C7           C8           C9           C10     
 Charge   -0.22141     -0.34479     -0.10135      0.05957     -0.13687
   
 Atom       C11          O12          Si13         C14          C15     
 Charge    0.15506     -0.25252     -0.25479      0.09717      0.21597
   
 Atom       C16          C17          C18          C19          C20     
 Charge    0.25594     -0.14633     -0.43761     -0.26108     -0.00472
   
 Atom       Si21         O22          C23          C24          P25     
 Charge    0.08370     -0.24178     -0.17343     -0.09549      0.87460
   
 Atom       O26          N27          C28          C29          C30     
 Charge   -0.59829     -0.66511      0.29872      0.20052      0.15649
   
 Atom       C31          C32          C33          C34          C35     
 Charge   -0.10624     -0.06764      0.16564     -0.26667     -0.18840
   
 Atom       C36          C37          C38          C39          C40     
 Charge   -0.17439     -0.23677     -0.16444     -0.17224      0.01583
   
 Atom       C41          C42          C43          C44          C45     
 Charge    0.11736     -0.03798     -0.01639     -0.23443     -0.27356
   
 Atom       C46          C47          C48          C49          C50     
 Charge   -0.10295     -0.13540     -0.13483     -0.12863     -0.15819
   
 Atom       C51          C52          C53          C54          C55     
 Charge   -0.09150     -0.12173     -0.14432     -0.11241     -0.23213
   
 Atom       C56          C57          C58          C59          C60     
 Charge   -0.07405     -0.24297     -0.21246     -0.07416     -0.20507
   
 Atom       C61          C62          C63          C64          C65     
 Charge    0.03223     -0.18881     -0.08300      0.10876     -0.34216
   
 Atom       C66          C67          C68          C69          C70     
 Charge    0.15763     -0.22842     -0.01854     -0.25273      0.22909
   
 Atom       N71          S72          O73          O74          C75     
 Charge   -0.55969      0.73875     -0.39894     -0.47752      0.51463
   
 Atom       C76          C77          C78          C79          N80     
 Charge   -0.42797      0.21183     -0.46246      0.47800     -0.62991
   
 Atom       N81          C82          C83          C84          C85     
 Charge   -0.01946      0.01278     -0.19657     -0.19834     -0.13203
   
 Atom       H86          H87          H88          H89          H90     
 Charge    0.11151      0.14725      0.14226      0.17273      0.13114
   
 Atom       H91          H92          H93          H94          H95     
 Charge    0.11981      0.21402      0.15561      0.14517      0.12876
   
 Atom       H96          H97          H98          H99          H100    
 Charge    0.15780      0.12797      0.10624      0.14729      0.11384
   
 Atom       H101         H102         H103         H104         H105    
 Charge    0.13754      0.08907      0.04925      0.11123      0.04910
   
 Atom       H106         H107         H108         H109         H110    
 Charge    0.11316      0.14518      0.10658      0.11348      0.13044
   
 Atom       H111         H112         H113         H114         H115    
 Charge    0.13255      0.13500      0.12386      0.11930      0.12720
   
 Atom       H116         H117         H118         H119         H120    
 Charge    0.12639      0.15581      0.12673      0.13370      0.13928
   
 Atom       H121         H122         H123         H124         H125    
 Charge    0.12098      0.14590      0.00614      0.12634      0.12609
   
 Atom       H126         H127         H128         H129         H130    
 Charge    0.05667      0.22129      0.11025      0.11814      0.15920
   
 Atom       H131         H132         H133         H134         H135    
 Charge    0.13314      0.18033      0.09509      0.17807      0.04307
   
 Atom       H136         H137         H138         H139         H140    
 Charge    0.32403      0.15413      0.17030      0.19747      0.19915
   
 Atom       S141         O142         C143         O144         F145    
 Charge    0.91563     -0.53322      0.42596     -0.54634     -0.13835
   
 Atom       F146         F147         H148    
 Charge   -0.14257     -0.13759      0.39312
  
  sum of atomic charges:    -0.000000
   
 RMS Error   1.02E-03 hartrees
 
  Peak memory usage:    816 Mb
  
  end of program ch
   
 Time(ch)  user:       18.4  user+sys:       18.4  wallclock:       30.2
  
  start of program post
  
  Writing input files for PBF
  Peak memory usage:    759 Mb
  
  end of program post
   
 Time(post)  user:        0.8  user+sys:        0.8  wallclock:        1.9

  start of program pbf

Pbf Version 4.10

Molecular surface area:      820.16309   [A2]
Reaction field energy:       -17.80669   [kT]
  Peak memory usage: 721 Mb

  end of program pbf

 Time(pbf)  user:       15.8  user+sys:       16.0  wallclock:       23.7
  
  start of program solv
  
   number of surface charges from PBF   13320
   sum of surface charges     -0.00043
   
  nuclear repulsion energy.......   20814.102833410 hartrees
  Peak memory usage:    894 Mb
  
  end of program solv
   
 Time(solv)  user:       36.2  user+sys:       36.2  wallclock:       59.0
  
  start of program scf
  
 Energy computed with NOPS off.
  
       i  u  d  i  g                   
       t  p  i  c  r                                 RMS    maximum
       e  d  i  u  i                       energy  density   DIIS  
       r  t  s  t  d       total energy    change  change    error 
  
etot    1  N  N  1  U   -5575.59081305424           5.7E-05  1.5E-03
etot    2  N  Y  1  U   -5575.59159908130  7.9E-04  1.9E-05  1.1E-03
etot    3  N  Y  1  U   -5575.59196921295  3.7E-04  5.9E-06  4.4E-04
etot    4  N  Y  1  U   -5575.59202987521  6.1E-05  2.5E-06  1.3E-04
etot    5  N  N  1  U   -5575.59203708658  7.2E-06  0.0E+00  0.0E+00
  
  
 Energy components, in hartrees:
   (A)  Total zero-electron terms....   20815.83674197457
   (B)    Nuclear-nuclear............   20814.10283341005
   (C)    Nuclear-solvent............       1.73390856452
   (E)  Total one-electron terms.....  -49157.83732973883
   (F)    Electron-nuclear...........  -54692.10271473899
   (G)    Electron-solvent...........      -1.77327215573
   (H)    Kinetic....................    5536.03865715589
   (I)  Total two-electron terms.....   22766.40855067768
   (J)    Coulomb....................   23417.67672329328
   (K)    Exchange+Correlation.......    -651.26817261560
   (L)  Electronic energy............  -26391.42877906115  (E+I)
   (N)  Total quantum mech. energy...   -5575.59203708658  (A+L)
   (O)  Gas phase energy.............   -5575.55389011288
   (P)  Solution phase energy........   -5575.57235529097  (Q+R+S)
   (Q)    Total solute energy........   -5575.55267349537  (N-C-G)
   (R)    Total solvent energy.......      -0.01968179561  (C/2+G/2)
   (S)    Solute cavity energy.......       0.00000000000
   (U)  Reorganization energy........       0.00121661752  (Q-O)
   (V)  Solvation energy.............      -0.01846517809  (P-O)
  
 SCFE:  Solution phase energy: DFT(m06-2x)      -5575.57235529097 hartrees
        SCF iterations:   5
  
 
 HOMO energy:    -0.25483
 LUMO energy:    -0.06689
 
  Orbital energies (hartrees): 
   -90.17843   -90.15532   -78.20816   -67.00983   -67.00715   -25.29326
   -25.29056   -25.28973   -19.68910   -19.68610   -19.66022   -19.65593
   -19.63262   -19.62940   -19.60089   -14.82560   -14.81691   -14.78930
   -14.74073   -10.80719   -10.65848   -10.63439   -10.62619   -10.62508
   -10.62180   -10.60777   -10.60488   -10.58963   -10.58890   -10.58715
   -10.58242   -10.57876   -10.57312   -10.57162   -10.57109   -10.56962
   -10.56894   -10.56831   -10.56306   -10.56296   -10.56267   -10.56230
   -10.56228   -10.56029   -10.55864   -10.55802   -10.55456   -10.55427
   -10.55411   -10.55336   -10.55304   -10.55299   -10.55294   -10.55220
   -10.55216   -10.55210   -10.55199   -10.55142   -10.55137   -10.55093
   -10.55067   -10.55006   -10.54931   -10.54929   -10.54922   -10.54757
   -10.54748   -10.54728   -10.54723   -10.54709   -10.54678   -10.54635
   -10.54632   -10.54620   -10.54550   -10.54500   -10.54460   -10.54429
   -10.54365   -10.54345   -10.54100   -10.54023   -10.53989   -10.53985
   -10.53901   -10.53850   -10.53494   -10.53464   -10.53292   -10.53016
   -10.52876   -10.52602    -8.48884    -8.46391    -6.98746    -6.41109
    -6.41012    -6.40920    -6.38582    -6.38540    -6.38523    -5.54125
    -5.53817    -5.10595    -5.10483    -5.10335    -3.85108    -3.85078
    -3.85041    -3.84794    -3.84766    -3.84749    -1.45833    -1.36801
    -1.36500    -1.25174    -1.22737    -1.21713    -1.18356    -1.13985
    -1.11586    -1.10312    -1.08413    -1.08302    -1.06388    -0.99224
    -0.98242    -0.97112    -0.96846    -0.94736    -0.94366    -0.94327
    -0.94030    -0.93854    -0.93447    -0.92447    -0.92313    -0.91183
    -0.90547    -0.89801    -0.89120    -0.87801    -0.85454    -0.85164
    -0.84728    -0.84597    -0.84311    -0.83777    -0.83693    -0.83589
    -0.83536    -0.83333    -0.83154    -0.82915    -0.82832    -0.82763
    -0.82661    -0.82558    -0.82471    -0.82450    -0.81959    -0.80454
    -0.80163    -0.76292    -0.75689    -0.73844    -0.72972    -0.71594
    -0.70987    -0.70449    -0.70014    -0.69373    -0.69273    -0.69047
    -0.68657    -0.68417    -0.68312    -0.68032    -0.68002    -0.67815
    -0.67738    -0.67504    -0.67416    -0.67148    -0.67110    -0.66757
    -0.66635    -0.66470    -0.66284    -0.65920    -0.65666    -0.65506
    -0.64967    -0.64784    -0.63640    -0.62578    -0.61393    -0.60951
    -0.60806    -0.60339    -0.60010    -0.58572    -0.58286    -0.58137
    -0.58050    -0.57923    -0.57799    -0.57694    -0.57404    -0.57315
    -0.56354    -0.56212    -0.56086    -0.55932    -0.55346    -0.54884
    -0.54644    -0.54408    -0.54102    -0.53912    -0.53748    -0.53596
    -0.53256    -0.52855    -0.52652    -0.52465    -0.52335    -0.52169
    -0.52015    -0.51737    -0.51587    -0.51543    -0.51348    -0.51165
    -0.50996    -0.50945    -0.50818    -0.50295    -0.50267    -0.50119
    -0.50073    -0.49822    -0.49686    -0.49643    -0.49587    -0.49572
    -0.49521    -0.49361    -0.49205    -0.49041    -0.48954    -0.48849
    -0.48474    -0.48385    -0.48296    -0.48194    -0.48053    -0.47816
    -0.47746    -0.47648    -0.47509    -0.47342    -0.46916    -0.46487
    -0.46090    -0.45567    -0.45447    -0.45223    -0.45015    -0.44837
    -0.44654    -0.44235    -0.43493    -0.43331    -0.43310    -0.43052
    -0.42847    -0.42765    -0.42555    -0.42236    -0.42179    -0.42043
    -0.41969    -0.41817    -0.41616    -0.41205    -0.40850    -0.40740
    -0.40229    -0.40128    -0.39901    -0.39711    -0.39527    -0.39345
    -0.39269    -0.39190    -0.39145    -0.38948    -0.38809    -0.38681
    -0.38362    -0.38175    -0.38000    -0.37794    -0.37395    -0.36645
    -0.36245    -0.36117    -0.35585    -0.35304    -0.34699    -0.34683
    -0.34303    -0.34127    -0.34055    -0.33943    -0.33821    -0.33738
    -0.33109    -0.32854    -0.32375    -0.31927    -0.31316    -0.30880
    -0.30478    -0.30108    -0.30063    -0.30001    -0.29956    -0.29697
    -0.29599    -0.29302    -0.29235    -0.29082    -0.28887    -0.28690
    -0.28524    -0.28506    -0.27461    -0.25483    -0.06689    -0.02060
    -0.01968    -0.00287    -0.00143     0.01089     0.01317     0.01707
     0.01744     0.02040
 
  Peak memory usage:   1029 Mb
  
  end of program scf
   
 Time(scf)  user:    10902.0  user+sys:    10902.0  wallclock:    17319.6
  
  start of program sole
  
    SCRF                   solvation energy
  iteration          Hartrees            kcal/mol
     0               0.0000000            0.0000
     1              -0.0184652          -11.5871
  
  solvation energy not yet converged... 
  
  Peak memory usage:    813 Mb
  
  end of program sole
   
 Time(sole)  user:        0.2  user+sys:        0.2  wallclock:        0.3
  
  start of program ch
  
  gridpoints used for charge fit        16276
    out of a possible maximum of        16276
  
   Electrostatic potential fitting constrained to reproduce
     total charge:                yes
     dipole moment:               no 
     traceless quadrupole moment: no 
     traceless octapole moment:   no 
  
  Atomic charges from electrostatic potential: 
   
 Atom       C1           C2           C3           C4           C5      
 Charge   -0.09821     -0.01954     -0.19134      0.18955      0.00360
   
 Atom       C6           C7           C8           C9           C10     
 Charge   -0.22929     -0.36148     -0.10749      0.03782     -0.13107
   
 Atom       C11          O12          Si13         C14          C15     
 Charge    0.18752     -0.23988     -0.29518      0.09506      0.18958
   
 Atom       C16          C17          C18          C19          C20     
 Charge    0.25988     -0.14723     -0.45427     -0.26893      0.02526
   
 Atom       Si21         O22          C23          C24          P25     
 Charge    0.06705     -0.22158     -0.18076     -0.10197      0.85369
   
 Atom       O26          N27          C28          C29          C30     
 Charge   -0.59164     -0.65815      0.31768      0.20516      0.17165
   
 Atom       C31          C32          C33          C34          C35     
 Charge   -0.10638     -0.07217      0.17302     -0.27849     -0.19255
   
 Atom       C36          C37          C38          C39          C40     
 Charge   -0.17326     -0.24253     -0.17299     -0.17755      0.00993
   
 Atom       C41          C42          C43          C44          C45     
 Charge    0.12910     -0.03795     -0.01329     -0.24374     -0.29683
   
 Atom       C46          C47          C48          C49          C50     
 Charge   -0.10813     -0.14293     -0.14086     -0.13972     -0.16551
   
 Atom       C51          C52          C53          C54          C55     
 Charge   -0.09745     -0.12913     -0.15095     -0.11948     -0.24269
   
 Atom       C56          C57          C58          C59          C60     
 Charge   -0.07731     -0.25611     -0.22137     -0.08056     -0.21726
   
 Atom       C61          C62          C63          C64          C65     
 Charge    0.03496     -0.20270     -0.08051      0.10871     -0.36199
   
 Atom       C66          C67          C68          C69          C70     
 Charge    0.17171     -0.23773     -0.01621     -0.26631      0.20121
   
 Atom       N71          S72          O73          O74          C75     
 Charge   -0.55026      0.75942     -0.43003     -0.49576      0.52589
   
 Atom       C76          C77          C78          C79          N80     
 Charge   -0.43983      0.21715     -0.46114      0.48653     -0.65965
   
 Atom       N81          C82          C83          C84          C85     
 Charge   -0.02518      0.01818     -0.19692     -0.20301     -0.10902
   
 Atom       H86          H87          H88          H89          H90     
 Charge    0.11295      0.15572      0.14891      0.18039      0.13942
   
 Atom       H91          H92          H93          H94          H95     
 Charge    0.12295      0.22067      0.16267      0.15274      0.13647
   
 Atom       H96          H97          H98          H99          H100    
 Charge    0.16404      0.13066      0.10483      0.15171      0.11785
   
 Atom       H101         H102         H103         H104         H105    
 Charge    0.13790      0.09042      0.04864      0.11515      0.04675
   
 Atom       H106         H107         H108         H109         H110    
 Charge    0.11852      0.15277      0.10967      0.11893      0.13815
   
 Atom       H111         H112         H113         H114         H115    
 Charge    0.14097      0.14278      0.13146      0.12728      0.13504
   
 Atom       H116         H117         H118         H119         H120    
 Charge    0.13099      0.16117      0.13393      0.14164      0.14721
   
 Atom       H121         H122         H123         H124         H125    
 Charge    0.12907      0.15485      0.00886      0.13513      0.13243
   
 Atom       H126         H127         H128         H129         H130    
 Charge    0.05984      0.22889      0.11675      0.12589      0.16796
   
 Atom       H131         H132         H133         H134         H135    
 Charge    0.14526      0.18884      0.10326      0.18385      0.04903
   
 Atom       H136         H137         H138         H139         H140    
 Charge    0.32313      0.16120      0.18039      0.20441      0.19130
   
 Atom       S141         O142         C143         O144         F145    
 Charge    0.91310     -0.52876      0.41974     -0.54300     -0.13562
   
 Atom       F146         F147         H148    
 Charge   -0.14378     -0.13378      0.38259
  
  sum of atomic charges:     0.000000
   
 RMS Error   1.03E-03 hartrees
 
  Peak memory usage:    816 Mb
  
  end of program ch
   
 Time(ch)  user:       18.4  user+sys:       18.4  wallclock:       29.8
  
  start of program post
  
  Writing input files for PBF
  Peak memory usage:    759 Mb
  
  end of program post
   
 Time(post)  user:        0.8  user+sys:        0.8  wallclock:        1.7

  start of program pbf

Pbf Version 4.10

Molecular surface area:      820.16309   [A2]
Reaction field energy:       -20.65310   [kT]
  Peak memory usage: 721 Mb

  end of program pbf

 Time(pbf)  user:       16.4  user+sys:       16.5  wallclock:       19.8
  
  start of program solv
  
   number of surface charges from PBF   13320
   sum of surface charges     -0.00045
   
  nuclear repulsion energy.......   20814.102833410 hartrees
  Peak memory usage:    894 Mb
  
  end of program solv
   
 Time(solv)  user:       36.2  user+sys:       36.2  wallclock:       47.1
  
  start of program scf
  
 Energy computed with NOPS off.
  
       i  u  d  i  g                   
       t  p  i  c  r                                 RMS    maximum
       e  d  i  u  i                       energy  density   DIIS  
       r  t  s  t  d       total energy    change  change    error 
  
etot    1  N  N  1  U   -5575.59502158918           7.2E-06  1.8E-04
etot    2  N  N  1  U   -5575.59502419974  2.6E-06  0.0E+00  0.0E+00
  
  
 Energy components, in hartrees:
   (A)  Total zero-electron terms....   20816.01960719239
   (B)    Nuclear-nuclear............   20814.10283341005
   (C)    Nuclear-solvent............       1.91677378234
   (E)  Total one-electron terms.....  -49158.30978842683
   (F)    Electron-nuclear...........  -54692.39839691541
   (G)    Electron-solvent...........      -1.95952956555
   (H)    Kinetic....................    5536.04813805413
   (I)  Total two-electron terms.....   22766.69515703470
   (J)    Coulomb....................   23417.96536537477
   (K)    Exchange+Correlation.......    -651.27020834006
   (L)  Electronic energy............  -26391.61463139212  (E+I)
   (N)  Total quantum mech. energy...   -5575.59502419974  (A+L)
   (O)  Gas phase energy.............   -5575.55389011288
   (P)  Solution phase energy........   -5575.57364630813  (Q+R+S)
   (Q)    Total solute energy........   -5575.55226841652  (N-C-G)
   (R)    Total solvent energy.......      -0.02137789161  (C/2+G/2)
   (S)    Solute cavity energy.......       0.00000000000
   (U)  Reorganization energy........       0.00162169636  (Q-O)
   (V)  Solvation energy.............      -0.01975619525  (P-O)
  
 SCFE:  Solution phase energy: DFT(m06-2x)      -5575.57364630813 hartrees
        SCF iterations:   2
  
 
 HOMO energy:    -0.27498
 LUMO energy:    -0.06650
 
  Orbital energies (hartrees): 
   -61.63129   -53.00662   -49.90278   -47.62736   -40.96308   -38.51323
   -28.98867   -25.01281   -24.26999   -23.75164   -23.46642   -21.77003
   -20.25246   -19.49158   -18.97815   -18.92008   -18.52357   -17.51417
   -16.93636   -16.88370   -16.20844   -15.83260   -15.52086   -15.19030
   -14.85206   -14.15772   -13.90931   -13.70361   -13.53837   -13.49524
   -13.32739   -12.81330   -12.59147   -12.52762   -11.93998   -11.81973
   -11.49291   -11.05787   -10.96759   -10.90749   -10.86540   -10.83153
   -10.79686   -10.78412   -10.77823   -10.75037   -10.73340   -10.71746
   -10.70203   -10.68344   -10.67921   -10.66423   -10.65832   -10.62363
   -10.62241   -10.61383   -10.61010   -10.60502   -10.60029   -10.58977
   -10.57515   -10.57444   -10.57302   -10.55545   -10.55051   -10.54755
   -10.54498   -10.54451   -10.53491   -10.52511   -10.50741   -10.50137
   -10.46185   -10.43953   -10.42576   -10.35281   -10.34861   -10.33212
   -10.31528   -10.22420   -10.20340   -10.19481   -10.09503   -10.03455
   -10.01810    -9.94208    -9.84083    -9.74391    -9.72629    -9.53211
    -9.40903    -9.23103    -9.07826    -9.06843    -9.02893    -8.94982
    -8.84693    -8.33978    -8.28122    -8.09010    -7.90420    -7.85879
    -7.74390    -7.52937    -7.32324    -7.26402    -6.78228    -6.57018
    -6.55207    -6.53640    -5.83542    -5.61302    -1.42750    -1.38985
    -1.37596    -1.22269    -1.17330    -1.09749    -1.05057    -1.04662
    -0.99941    -0.95838    -0.93721    -0.93316    -0.91650    -0.88949
    -0.88847    -0.87946    -0.87395    -0.85880    -0.85111    -0.84864
    -0.83350    -0.82952    -0.82928    -0.82879    -0.82370    -0.82054
    -0.81809    -0.80565    -0.80159    -0.79728    -0.79606    -0.79550
    -0.79276    -0.79225    -0.79102    -0.79017    -0.78839    -0.78313
    -0.78155    -0.77784    -0.77570    -0.77559    -0.77373    -0.77075
    -0.76998    -0.76799    -0.76760    -0.76413    -0.76146    -0.75176
    -0.74614    -0.74566    -0.74194    -0.74142    -0.74035    -0.73479
    -0.73271    -0.72979    -0.71833    -0.71162    -0.70802    -0.70347
    -0.69917    -0.68590    -0.68586    -0.68530    -0.68303    -0.67894
    -0.67596    -0.67565    -0.66912    -0.66699    -0.66478    -0.65963
    -0.65960    -0.65795    -0.65258    -0.64841    -0.64495    -0.64418
    -0.64361    -0.63987    -0.63890    -0.63828    -0.63779    -0.63764
    -0.63624    -0.63481    -0.62857    -0.62671    -0.62238    -0.61957
    -0.61722    -0.61383    -0.61315    -0.60948    -0.60683    -0.60148
    -0.60077    -0.60074    -0.59984    -0.59979    -0.59722    -0.59254
    -0.59235    -0.58545    -0.57861    -0.57292    -0.57139    -0.57089
    -0.56891    -0.55980    -0.55791    -0.55759    -0.54770    -0.54308
    -0.54268    -0.54007    -0.53995    -0.53876    -0.53778    -0.53604
    -0.53427    -0.53184    -0.53130    -0.52971    -0.52921    -0.52645
    -0.52189    -0.52090    -0.51385    -0.51169    -0.51157    -0.51012
    -0.50825    -0.50742    -0.50713    -0.50560    -0.50418    -0.50357
    -0.50253    -0.50190    -0.50130    -0.49758    -0.49725    -0.49474
    -0.49449    -0.49229    -0.48934    -0.48750    -0.48640    -0.48578
    -0.48467    -0.48352    -0.48347    -0.48304    -0.47994    -0.47840
    -0.47586    -0.47360    -0.47154    -0.46894    -0.46752    -0.46620
    -0.46557    -0.46533    -0.46457    -0.46455    -0.46449    -0.46345
    -0.46043    -0.45705    -0.45587    -0.45461    -0.45366    -0.45133
    -0.45078    -0.44943    -0.44793    -0.44777    -0.44693    -0.44660
    -0.44418    -0.44073    -0.43859    -0.43728    -0.43595    -0.43155
    -0.43152    -0.42347    -0.42256    -0.41637    -0.41585    -0.41533
    -0.41530    -0.41444    -0.41225    -0.41097    -0.40062    -0.39639
    -0.39512    -0.39368    -0.39274    -0.39251    -0.39081    -0.38546
    -0.38215    -0.37620    -0.37605    -0.37495    -0.37469    -0.35823
    -0.35615    -0.35488    -0.35285    -0.35174    -0.35148    -0.35074
    -0.34539    -0.34300    -0.34279    -0.33476    -0.32013    -0.31321
    -0.31131    -0.30561    -0.30467    -0.27498    -0.06650    -0.02046
    -0.01961    -0.00287    -0.00138     0.01100     0.01340     0.01730
     0.01758     0.02043
 
  Peak memory usage:   1029 Mb
  
  end of program scf
   
 Time(scf)  user:     2780.4  user+sys:     2780.4  wallclock:     4676.1
  
  start of program sole
  
    SCRF                   solvation energy
  iteration          Hartrees            kcal/mol
     0               0.0000000            0.0000
     1              -0.0184652          -11.5871
     2              -0.0197562          -12.3972
  
  solvation energy not yet converged... 
  
  Peak memory usage:    813 Mb
  
  end of program sole
   
 Time(sole)  user:        0.2  user+sys:        0.2  wallclock:        0.2
  
  start of program ch
  
  gridpoints used for charge fit        16276
    out of a possible maximum of        16276
  
   Electrostatic potential fitting constrained to reproduce
     total charge:                yes
     dipole moment:               no 
     traceless quadrupole moment: no 
     traceless octapole moment:   no 
  
  Atomic charges from electrostatic potential: 
   
 Atom       C1           C2           C3           C4           C5      
 Charge   -0.09906     -0.01987     -0.19128      0.18954      0.00341
   
 Atom       C6           C7           C8           C9           C10     
 Charge   -0.22958     -0.36219     -0.10750      0.03605     -0.13066
   
 Atom       C11          O12          Si13         C14          C15     
 Charge    0.18951     -0.23851     -0.29818      0.09542      0.18641
   
 Atom       C16          C17          C18          C19          C20     
 Charge    0.25997     -0.14762     -0.45529     -0.26947      0.02735
   
 Atom       Si21         O22          C23          C24          P25     
 Charge    0.06565     -0.21926     -0.18052     -0.10153      0.85042
   
 Atom       O26          N27          C28          C29          C30     
 Charge   -0.58986     -0.65797      0.31844      0.20509      0.17270
   
 Atom       C31          C32          C33          C34          C35     
 Charge   -0.10746     -0.07313      0.17211     -0.27933     -0.19356
   
 Atom       C36          C37          C38          C39          C40     
 Charge   -0.17305     -0.24274     -0.17346     -0.17868      0.00978
   
 Atom       C41          C42          C43          C44          C45     
 Charge    0.12985     -0.03786     -0.01383     -0.24481     -0.29928
   
 Atom       C46          C47          C48          C49          C50     
 Charge   -0.10841     -0.14305     -0.14036     -0.14050     -0.16555
   
 Atom       C51          C52          C53          C54          C55     
 Charge   -0.09774     -0.12893     -0.15155     -0.11984     -0.24350
   
 Atom       C56          C57          C58          C59          C60     
 Charge   -0.07720     -0.25639     -0.22144     -0.08040     -0.21754
   
 Atom       C61          C62          C63          C64          C65     
 Charge    0.03464     -0.20238     -0.07891      0.10814     -0.36510
   
 Atom       C66          C67          C68          C69          C70     
 Charge    0.17071     -0.23750     -0.01440     -0.26674      0.19706
   
 Atom       N71          S72          O73          O74          C75     
 Charge   -0.55023      0.75734     -0.43369     -0.49381      0.52477
   
 Atom       C76          C77          C78          C79          N80     
 Charge   -0.43988      0.21929     -0.45874      0.48573     -0.66368
   
 Atom       N81          C82          C83          C84          C85     
 Charge   -0.02640      0.02120     -0.19494     -0.20296     -0.10636
   
 Atom       H86          H87          H88          H89          H90     
 Charge    0.11304      0.15626      0.14930      0.18081      0.14005
   
 Atom       H91          H92          H93          H94          H95     
 Charge    0.12328      0.22093      0.16298      0.15318      0.13693
   
 Atom       H96          H97          H98          H99          H100    
 Charge    0.16446      0.13062      0.10451      0.15176      0.11812
   
 Atom       H101         H102         H103         H104         H105    
 Charge    0.13771      0.09021      0.04849      0.11532      0.04640
   
 Atom       H106         H107         H108         H109         H110    
 Charge    0.11937      0.15314      0.10974      0.11971      0.13883
   
 Atom       H111         H112         H113         H114         H115    
 Charge    0.14152      0.14328      0.13201      0.12805      0.13578
   
 Atom       H116         H117         H118         H119         H120    
 Charge    0.13106      0.16132      0.13438      0.14220      0.14781
   
 Atom       H121         H122         H123         H124         H125    
 Charge    0.12965      0.15539      0.00987      0.13593      0.13275
   
 Atom       H126         H127         H128         H129         H130    
 Charge    0.05998      0.22909      0.11758      0.12664      0.16847
   
 Atom       H131         H132         H133         H134         H135    
 Charge    0.14631      0.18975      0.10400      0.18453      0.04976
   
 Atom       H136         H137         H138         H139         H140    
 Charge    0.32212      0.16147      0.18131      0.20491      0.19057
   
 Atom       S141         O142         C143         O144         F145    
 Charge    0.91338     -0.52734      0.41898     -0.54398     -0.13516
   
 Atom       F146         F147         H148    
 Charge   -0.14396     -0.13315      0.38168
  
  sum of atomic charges:    -0.000000
   
 RMS Error   1.03E-03 hartrees
 
  Peak memory usage:    816 Mb
  
  end of program ch
   
 Time(ch)  user:       17.8  user+sys:       17.8  wallclock:       24.2
  
  start of program post
  
  Writing input files for PBF
  Peak memory usage:    759 Mb
  
  end of program post
   
 Time(post)  user:        0.8  user+sys:        0.8  wallclock:        1.7

  start of program pbf

Pbf Version 4.10

Molecular surface area:      820.16309   [A2]
Reaction field energy:       -21.09286   [kT]
  Peak memory usage: 721 Mb

  end of program pbf

 Time(pbf)  user:       16.9  user+sys:       17.0  wallclock:       19.2
  
  start of program solv
  
   number of surface charges from PBF   13320
   sum of surface charges     -0.00045
   
  nuclear repulsion energy.......   20814.102833410 hartrees
  Peak memory usage:    894 Mb
  
  end of program solv
   
 Time(solv)  user:       36.1  user+sys:       36.1  wallclock:       49.4
  
  start of program scf
  
 Energy computed with NOPS off.
  
       i  u  d  i  g                   
       t  p  i  c  r                                 RMS    maximum
       e  d  i  u  i                       energy  density   DIIS  
       r  t  s  t  d       total energy    change  change    error 
  
etot    1  N  N  1  U   -5575.59545304935           6.2E-06  1.7E-04
etot    2  N  N  1  U   -5575.59543390217 -1.9E-05  0.0E+00  0.0E+00
  
  
 Energy components, in hartrees:
   (A)  Total zero-electron terms....   20816.05730637789
   (B)    Nuclear-nuclear............   20814.10283341005
   (C)    Nuclear-solvent............       1.95447296784
   (E)  Total one-electron terms.....  -49158.04478839543
   (F)    Electron-nuclear...........  -54692.08024578394
   (G)    Electron-solvent...........      -1.99746121492
   (H)    Kinetic....................    5536.03291860343
   (I)  Total two-electron terms.....   22766.39204811538
   (J)    Coulomb....................   23417.66085056909
   (K)    Exchange+Correlation.......    -651.26880245371
   (L)  Electronic energy............  -26391.65274028006  (E+I)
   (N)  Total quantum mech. energy...   -5575.59543390217  (A+L)
   (O)  Gas phase energy.............   -5575.55389011288
   (P)  Solution phase energy........   -5575.57393977863  (Q+R+S)
   (Q)    Total solute energy........   -5575.55244565508  (N-C-G)
   (R)    Total solvent energy.......      -0.02149412354  (C/2+G/2)
   (S)    Solute cavity energy.......       0.00000000000
   (U)  Reorganization energy........       0.00144445780  (Q-O)
   (V)  Solvation energy.............      -0.02004966574  (P-O)
  
 SCFE:  Solution phase energy: DFT(m06-2x)      -5575.57393977863 hartrees
        SCF iterations:   2
  
 
 HOMO energy:    -0.25518
 LUMO energy:    -0.06678
 
  Orbital energies (hartrees): 
   -90.18061   -90.15619   -78.20864   -67.01006   -67.00828   -25.29419
   -25.29069   -25.29008   -19.68941   -19.68680   -19.66020   -19.65872
   -19.63494   -19.62850   -19.60022   -14.82590   -14.82007   -14.79266
   -14.74198   -10.80779   -10.66018   -10.63647   -10.62548   -10.62405
   -10.62275   -10.60775   -10.60541   -10.58855   -10.58811   -10.58569
   -10.58368   -10.57759   -10.57208   -10.57134   -10.57061   -10.56948
   -10.56885   -10.56874   -10.56444   -10.56315   -10.56258   -10.56191
   -10.56156   -10.56033   -10.55936   -10.55879   -10.55486   -10.55424
   -10.55397   -10.55347   -10.55301   -10.55295   -10.55254   -10.55223
   -10.55214   -10.55197   -10.55189   -10.55149   -10.55146   -10.55065
   -10.55000   -10.54997   -10.54926   -10.54923   -10.54824   -10.54798
   -10.54790   -10.54778   -10.54757   -10.54708   -10.54695   -10.54660
   -10.54652   -10.54608   -10.54600   -10.54546   -10.54493   -10.54442
   -10.54423   -10.54263   -10.54121   -10.54111   -10.54022   -10.54017
   -10.53985   -10.53946   -10.53526   -10.53495   -10.53417   -10.53053
   -10.53009   -10.52739    -8.49097    -8.46477    -6.98794    -6.41322
    -6.41227    -6.41134    -6.38668    -6.38627    -6.38609    -5.54148
    -5.53929    -5.10642    -5.10530    -5.10382    -3.85131    -3.85101
    -3.85064    -3.84906    -3.84878    -3.84862    -1.45888    -1.36869
    -1.36538    -1.25356    -1.22795    -1.21788    -1.18408    -1.14165
    -1.11530    -1.10392    -1.08459    -1.08414    -1.06577    -0.99296
    -0.98284    -0.97141    -0.96874    -0.94735    -0.94424    -0.94320
    -0.93996    -0.93934    -0.93480    -0.92430    -0.92331    -0.91209
    -0.90470    -0.89852    -0.89157    -0.87838    -0.85473    -0.85177
    -0.84663    -0.84592    -0.84362    -0.83779    -0.83720    -0.83596
    -0.83590    -0.83302    -0.83225    -0.82955    -0.82826    -0.82807
    -0.82676    -0.82598    -0.82482    -0.82472    -0.82019    -0.80538
    -0.80194    -0.76354    -0.75754    -0.73882    -0.73020    -0.71677
    -0.71028    -0.70472    -0.70032    -0.69406    -0.69230    -0.69065
    -0.68700    -0.68463    -0.68365    -0.68070    -0.68011    -0.67811
    -0.67779    -0.67446    -0.67398    -0.67186    -0.67080    -0.66827
    -0.66661    -0.66463    -0.66256    -0.65970    -0.65721    -0.65516
    -0.64998    -0.64806    -0.63688    -0.62608    -0.61442    -0.60980
    -0.60885    -0.60380    -0.60033    -0.58618    -0.58291    -0.58158
    -0.58129    -0.57923    -0.57846    -0.57723    -0.57420    -0.57344
    -0.56404    -0.56258    -0.56116    -0.55980    -0.55354    -0.54935
    -0.54693    -0.54478    -0.54121    -0.53938    -0.53775    -0.53599
    -0.53324    -0.52889    -0.52681    -0.52460    -0.52341    -0.52218
    -0.52007    -0.51720    -0.51588    -0.51585    -0.51394    -0.51182
    -0.51029    -0.50968    -0.50842    -0.50300    -0.50295    -0.50129
    -0.50119    -0.49832    -0.49688    -0.49669    -0.49624    -0.49591
    -0.49554    -0.49412    -0.49230    -0.49038    -0.48988    -0.48876
    -0.48478    -0.48400    -0.48295    -0.48242    -0.48015    -0.47778
    -0.47700    -0.47693    -0.47531    -0.47293    -0.46920    -0.46516
    -0.46092    -0.45587    -0.45451    -0.45230    -0.45026    -0.44853
    -0.44672    -0.44288    -0.43599    -0.43371    -0.43340    -0.43133
    -0.42872    -0.42777    -0.42599    -0.42243    -0.42187    -0.42062
    -0.42036    -0.41876    -0.41629    -0.41257    -0.40885    -0.40811
    -0.40241    -0.40158    -0.40023    -0.39804    -0.39552    -0.39344
    -0.39334    -0.39265    -0.39194    -0.38948    -0.38810    -0.38754
    -0.38388    -0.38203    -0.38049    -0.37868    -0.37434    -0.36652
    -0.36284    -0.36177    -0.35637    -0.35330    -0.34793    -0.34772
    -0.34314    -0.34141    -0.34103    -0.33992    -0.33899    -0.33671
    -0.33162    -0.32897    -0.32428    -0.31995    -0.31331    -0.30883
    -0.30483    -0.30165    -0.30077    -0.30020    -0.29958    -0.29695
    -0.29671    -0.29377    -0.29258    -0.29094    -0.28923    -0.28715
    -0.28566    -0.28523    -0.27485    -0.25518    -0.06678    -0.02098
    -0.02041    -0.00313    -0.00162     0.01057     0.01287     0.01674
     0.01717     0.02028
 
  Peak memory usage:   1029 Mb
  
  end of program scf
   
 Time(scf)  user:     2762.3  user+sys:     2762.3  wallclock:     5084.0
  
  start of program sole
  
    SCRF                   solvation energy
  iteration          Hartrees            kcal/mol
     0               0.0000000            0.0000
     1              -0.0184652          -11.5871
     2              -0.0197562          -12.3972
     3              -0.0200497          -12.5814
  
  solvation energy not yet converged... 
  
  Peak memory usage:    813 Mb
  
  end of program sole
   
 Time(sole)  user:        0.2  user+sys:        0.2  wallclock:        0.2
  
  start of program ch
  
  gridpoints used for charge fit        16276
    out of a possible maximum of        16276
  
   Electrostatic potential fitting constrained to reproduce
     total charge:                yes
     dipole moment:               no 
     traceless quadrupole moment: no 
     traceless octapole moment:   no 
  
  Atomic charges from electrostatic potential: 
   
 Atom       C1           C2           C3           C4           C5      
 Charge   -0.09779     -0.01996     -0.19222      0.18990      0.00381
   
 Atom       C6           C7           C8           C9           C10     
 Charge   -0.22998     -0.36316     -0.10788      0.03626     -0.13034
   
 Atom       C11          O12          Si13         C14          C15     
 Charge    0.18990     -0.23948     -0.29669      0.09499      0.18755
   
 Atom       C16          C17          C18          C19          C20     
 Charge    0.25954     -0.14726     -0.45546     -0.26898      0.02857
   
 Atom       Si21         O22          C23          C24          P25     
 Charge    0.06590     -0.22010     -0.18153     -0.10275      0.85320
   
 Atom       O26          N27          C28          C29          C30     
 Charge   -0.59192     -0.65801      0.31820      0.20587      0.17358
   
 Atom       C31          C32          C33          C34          C35     
 Charge   -0.10575     -0.07216      0.17401     -0.27842     -0.19177
   
 Atom       C36          C37          C38          C39          C40     
 Charge   -0.17370     -0.24239     -0.17482     -0.17835      0.00902
   
 Atom       C41          C42          C43          C44          C45     
 Charge    0.13032     -0.03792     -0.01236     -0.24466     -0.29801
   
 Atom       C46          C47          C48          C49          C50     
 Charge   -0.10861     -0.14359     -0.14196     -0.14045     -0.16585
   
 Atom       C51          C52          C53          C54          C55     
 Charge   -0.09815     -0.12928     -0.15204     -0.11910     -0.24322
   
 Atom       C56          C57          C58          C59          C60     
 Charge   -0.07768     -0.25761     -0.22216     -0.08114     -0.21853
   
 Atom       C61          C62          C63          C64          C65     
 Charge    0.03558     -0.20461     -0.08071      0.10898     -0.36273
   
 Atom       C66          C67          C68          C69          C70     
 Charge    0.17365     -0.23934     -0.01653     -0.26816      0.19899
   
 Atom       N71          S72          O73          O74          C75     
 Charge   -0.54729      0.76018     -0.43317     -0.49866      0.52721
   
 Atom       C76          C77          C78          C79          N80     
 Charge   -0.44136      0.21641     -0.46126      0.48649     -0.66059
   
 Atom       N81          C82          C83          C84          C85     
 Charge   -0.02471      0.01583     -0.19681     -0.20499     -0.10541
   
 Atom       H86          H87          H88          H89          H90     
 Charge    0.11262      0.15640      0.14934      0.18072      0.14014
   
 Atom       H91          H92          H93          H94          H95     
 Charge    0.12319      0.22086      0.16297      0.15338      0.13717
   
 Atom       H96          H97          H98          H99          H100    
 Charge    0.16379      0.13036      0.10465      0.15165      0.11817
   
 Atom       H101         H102         H103         H104         H105    
 Charge    0.13792      0.09060      0.04817      0.11520      0.04590
   
 Atom       H106         H107         H108         H109         H110    
 Charge    0.11989      0.15280      0.10969      0.11958      0.13906
   
 Atom       H111         H112         H113         H114         H115    
 Charge    0.14147      0.14331      0.13207      0.12803      0.13590
   
 Atom       H116         H117         H118         H119         H120    
 Charge    0.13089      0.16110      0.13440      0.14227      0.14788
   
 Atom       H121         H122         H123         H124         H125    
 Charge    0.12975      0.15546      0.00904      0.13618      0.13296
   
 Atom       H126         H127         H128         H129         H130    
 Charge    0.05978      0.22918      0.11753      0.12690      0.16861
   
 Atom       H131         H132         H133         H134         H135    
 Charge    0.14567      0.18966      0.10453      0.18475      0.04955
   
 Atom       H136         H137         H138         H139         H140    
 Charge    0.32293      0.16259      0.18226      0.20549      0.19073
   
 Atom       S141         O142         C143         O144         F145    
 Charge    0.91541     -0.53009      0.41870     -0.54249     -0.13537
   
 Atom       F146         F147         H148    
 Charge   -0.14376     -0.13370      0.38177
  
  sum of atomic charges:    -0.000000
   
 RMS Error   1.03E-03 hartrees
 
  Peak memory usage:    816 Mb
  
  end of program ch
   
 Time(ch)  user:       17.7  user+sys:       17.7  wallclock:       23.4
  
  start of program post
  
  Writing input files for PBF
  Peak memory usage:    759 Mb
  
  end of program post
   
 Time(post)  user:        0.8  user+sys:        0.8  wallclock:        1.5

  start of program pbf

Pbf Version 4.10

Molecular surface area:      820.16309   [A2]
Reaction field energy:       -20.90344   [kT]
  Peak memory usage: 721 Mb

  end of program pbf

 Time(pbf)  user:       16.1  user+sys:       16.2  wallclock:       21.2
  
  start of program solv
  
   number of surface charges from PBF   13320
   sum of surface charges     -0.00044
   
  nuclear repulsion energy.......   20814.102833410 hartrees
  Peak memory usage:    894 Mb
  
  end of program solv
   
 Time(solv)  user:       36.2  user+sys:       36.2  wallclock:       46.9
  
  start of program scf
  
 Energy computed with NOPS off.
  
       i  u  d  i  g                   
       t  p  i  c  r                                 RMS    maximum
       e  d  i  u  i                       energy  density   DIIS  
       r  t  s  t  d       total energy    change  change    error 
  
etot    1  N  N  1  U   -5575.59526427265           9.3E-06  2.7E-04
etot    2  N  Y  1  U   -5575.59520071810 -6.4E-05  6.1E-06  4.5E-04
etot    3  N  Y  1  U   -5575.59529204960  9.1E-05  1.8E-07  1.5E-05
etot    4  N  N  1  U   -5575.59529212444  7.5E-08  0.0E+00  0.0E+00
  
  
 Energy components, in hartrees:
   (A)  Total zero-electron terms....   20816.03084063333
   (B)    Nuclear-nuclear............   20814.10283341005
   (C)    Nuclear-solvent............       1.92800722328
   (E)  Total one-electron terms.....  -49158.19214832752
   (F)    Electron-nuclear...........  -54692.25972700842
   (G)    Electron-solvent...........      -1.97093311866
   (H)    Kinetic....................    5536.03851179956
   (I)  Total two-electron terms.....   22766.56601556976
   (J)    Coulomb....................   23417.83525754493
   (K)    Exchange+Correlation.......    -651.26924197518
   (L)  Electronic energy............  -26391.62613275777  (E+I)
   (N)  Total quantum mech. energy...   -5575.59529212444  (A+L)
   (O)  Gas phase energy.............   -5575.55389011288
   (P)  Solution phase energy........   -5575.57382917675  (Q+R+S)
   (Q)    Total solute energy........   -5575.55236622906  (N-C-G)
   (R)    Total solvent energy.......      -0.02146294769  (C/2+G/2)
   (S)    Solute cavity energy.......       0.00000000000
   (U)  Reorganization energy........       0.00152388382  (Q-O)
   (V)  Solvation energy.............      -0.01993906387  (P-O)
  
 SCFE:  Solution phase energy: DFT(m06-2x)      -5575.57382917675 hartrees
        SCF iterations:   4
  
 
 HOMO energy:    -0.25490
 LUMO energy:    -0.06658
 
  Orbital energies (hartrees): 
   -90.17912   -90.15534   -78.20809   -67.00974   -67.00718   -25.29347
   -25.29064   -25.28989   -19.68907   -19.68601   -19.66206   -19.65771
   -19.63245   -19.62991   -19.60092   -14.82514   -14.81674   -14.78965
   -14.74049   -10.80730   -10.65807   -10.63485   -10.62579   -10.62504
   -10.62167   -10.60754   -10.60483   -10.58976   -10.58898   -10.58673
   -10.58202   -10.57857   -10.57234   -10.57178   -10.57127   -10.56927
   -10.56896   -10.56833   -10.56317   -10.56290   -10.56251   -10.56251
   -10.56213   -10.56035   -10.55872   -10.55802   -10.55466   -10.55435
   -10.55418   -10.55344   -10.55310   -10.55302   -10.55294   -10.55233
   -10.55218   -10.55209   -10.55172   -10.55164   -10.55139   -10.55099
   -10.55042   -10.55003   -10.54948   -10.54936   -10.54907   -10.54771
   -10.54757   -10.54753   -10.54727   -10.54719   -10.54668   -10.54656
   -10.54627   -10.54610   -10.54569   -10.54471   -10.54453   -10.54452
   -10.54392   -10.54346   -10.54121   -10.54055   -10.54005   -10.53978
   -10.53890   -10.53841   -10.53506   -10.53463   -10.53319   -10.53003
   -10.52891   -10.52607    -8.48958    -8.46393    -6.98739    -6.41182
    -6.41087    -6.40994    -6.38584    -6.38542    -6.38525    -5.54117
    -5.53821    -5.10587    -5.10475    -5.10328    -3.85100    -3.85070
    -3.85033    -3.84797    -3.84769    -3.84753    -1.45847    -1.36818
    -1.36511    -1.25295    -1.22735    -1.21718    -1.18352    -1.14126
    -1.11550    -1.10322    -1.08410    -1.08332    -1.06397    -0.99221
    -0.98249    -0.97094    -0.96856    -0.94737    -0.94394    -0.94322
    -0.94014    -0.93877    -0.93455    -0.92455    -0.92318    -0.91187
    -0.90510    -0.89813    -0.89126    -0.87788    -0.85461    -0.85144
    -0.84693    -0.84593    -0.84322    -0.83780    -0.83698    -0.83585
    -0.83563    -0.83317    -0.83174    -0.82926    -0.82829    -0.82773
    -0.82665    -0.82566    -0.82473    -0.82450    -0.81969    -0.80473
    -0.80168    -0.76296    -0.75692    -0.73856    -0.72977    -0.71607
    -0.70990    -0.70451    -0.70014    -0.69368    -0.69241    -0.69046
    -0.68642    -0.68428    -0.68325    -0.68043    -0.67998    -0.67813
    -0.67749    -0.67468    -0.67400    -0.67160    -0.67094    -0.66776
    -0.66641    -0.66466    -0.66269    -0.65935    -0.65677    -0.65499
    -0.64972    -0.64781    -0.63639    -0.62578    -0.61395    -0.60957
    -0.60849    -0.60346    -0.60012    -0.58576    -0.58283    -0.58141
    -0.58088    -0.57920    -0.57814    -0.57701    -0.57408    -0.57321
    -0.56366    -0.56222    -0.56091    -0.55942    -0.55339    -0.54907
    -0.54672    -0.54433    -0.54097    -0.53915    -0.53755    -0.53590
    -0.53263    -0.52856    -0.52654    -0.52451    -0.52328    -0.52179
    -0.52009    -0.51724    -0.51570    -0.51558    -0.51356    -0.51163
    -0.50996    -0.50938    -0.50816    -0.50296    -0.50273    -0.50117
    -0.50090    -0.49820    -0.49683    -0.49636    -0.49595    -0.49573
    -0.49527    -0.49368    -0.49209    -0.49036    -0.48957    -0.48847
    -0.48475    -0.48387    -0.48290    -0.48217    -0.48033    -0.47796
    -0.47719    -0.47659    -0.47512    -0.47313    -0.46912    -0.46491
    -0.46101    -0.45571    -0.45445    -0.45222    -0.45015    -0.44830
    -0.44653    -0.44247    -0.43572    -0.43340    -0.43319    -0.43090
    -0.42848    -0.42770    -0.42575    -0.42235    -0.42178    -0.42045
    -0.41991    -0.41831    -0.41620    -0.41245    -0.40855    -0.40781
    -0.40231    -0.40127    -0.39951    -0.39748    -0.39534    -0.39345
    -0.39300    -0.39239    -0.39168    -0.38951    -0.38805    -0.38702
    -0.38367    -0.38180    -0.38007    -0.37801    -0.37397    -0.36644
    -0.36257    -0.36129    -0.35591    -0.35307    -0.34734    -0.34698
    -0.34301    -0.34124    -0.34064    -0.33955    -0.33834    -0.33699
    -0.33114    -0.32858    -0.32373    -0.31926    -0.31300    -0.30882
    -0.30484    -0.30139    -0.30065    -0.30005    -0.29952    -0.29692
    -0.29619    -0.29320    -0.29236    -0.29084    -0.28891    -0.28687
    -0.28532    -0.28504    -0.27468    -0.25490    -0.06658    -0.02068
    -0.01994    -0.00297    -0.00149     0.01082     0.01319     0.01708
     0.01742     0.02036
 
  Peak memory usage:   1029 Mb
  
  end of program scf
   
 Time(scf)  user:     8058.7  user+sys:     8058.7  wallclock:    12259.1
  
  start of program sole
  
    SCRF                   solvation energy
  iteration          Hartrees            kcal/mol
     0               0.0000000            0.0000
     1              -0.0184652          -11.5871
     2              -0.0197562          -12.3972
     3              -0.0200497          -12.5814
     4              -0.0199391          -12.5120
  
  stopping: solvation energy converged
  
  iterations:   4    sfinal:    -12.5120 kcal/mol
  
  Peak memory usage:    813 Mb
  
  end of program sole
   
 Time(sole)  user:        0.1  user+sys:        0.1  wallclock:        0.2
  
  start of program post
  
  Writing input files for PBF
  Peak memory usage:    759 Mb
  
  end of program post
   
 Time(post)  user:        0.7  user+sys:        0.7  wallclock:        1.4

 Total cpu seconds     user:   60715.749   user+sys:   60715.749
  
 Total elapsed time:    103034 seconds

Job jag_Toru-SiPh3-NTf-Type-I-E-Sulfonyl-2-chkp-2-scan-unrestrained.SPE completed on tethys at Fri Feb 24 18:13:28 2017
