Job Toru-SiPh3-NTf-Type-I-E-Sulfonyl-3-chkp-scan-unrestrained-3-SPE started on tethys at Fri Mar 24 13:56:40 2017
jobid: tethys-0-58d52595

  +--------------------------------------------------------------------+
  |  Jaguar version 9.5, release  11                                   |
  |                                                                    |
  |  Copyright Schrodinger, Inc.                                       |
  |  All Rights Reserved.                                              |
  |                                                                    |
  |  The following have contributed to Jaguar (listed alphabetically): |
  |  Mike Beachy, Art Bochevarov, Dale Braden, Yixiang Cao,            |
  |  Chris Cortis, Rich Friesner, Bill Goddard, Hod Greeley,           |
  |  Tom Hughes, Leif Jacobson, Jean-Marc Langlois,                    |
  |  Daniel Mainz, Rob Murphy, Dean Philipp, Tom Pollard,              |
  |  Murco Ringnalda, Mark Watson, Haoyu Yu.                           |
  |                                                                    |
  |  Use of this program should be acknowledged in publications as:    |
  |                                                                    |
  |  Jaguar, version 9.5, Schrodinger, Inc., New York, NY, 2017.       |
  |                                                                    |
  |  A. D. Bochevarov, E. Harder, T. F. Hughes, J. R. Greenwood,       |
  |  D. A. Braden, D. M. Philipp, D. Rinaldo, M. D. Halls,             |
  |  J. Zhang, R. A. Friesner, "Jaguar: A High-Performance Quantum     |
  |  Chemistry Software Program with Strengths in Life and Materials   |
  |  Sciences", Int. J. Quantum Chem., 2013, 113(18), 2110-2142.       |
  +--------------------------------------------------------------------+
  
  start of program pre
  
  Job name: Toru-SiPh3-NTf-Type-I-E-Sulfonyl-3-chkp-scan-unrestrained-3-SPE
  Executables used: /usr/local/shared/schrodinger/current/jaguar-v9.5/bin/Linux-x86_64
  Temporary files : /scratch/ab2144/Toru-SiPh3-NTf-Type-I-E-Sulfonyl-3-chkp-scan-unrestrained-3-SPE
  Maestro file (input):  Toru-SiPh3-NTf-Type-I-E-Sulfonyl-3-chkp-scan-unrestrained-3-SPE.mae
  Maestro file (output): Toru-SiPh3-NTf-Type-I-E-Sulfonyl-3-chkp-scan-unrestrained-3-SPE.01.mae
  
  basis set:             6-31g**                         
  net molecular charge:    0
  multiplicity:            1
  
  keygrid settings 
    wispc.....   7.500E-01
    ldens.....   0
    denspc....   7.500E-01
  
   grid     daf set  nls  grid set  Q type
  ------    -------  ---  --------  ------
  coarse       1      1       1        1
  medium       2      2       2        1
  fine         3      2       3        0
  ultrafine    4      2       4        1
  charge       0      1      -1        1
  gradient     5      2       4        1
  density      0      1       0        0
  DFT-fine     0      1     -13        0
  DFT-med.     0      1     -13        0
  DFT-grad     0      1     -13        0
  DFT-der2     0      1       0        0
  DFT-cphf     0      1       0        0
  LMP2-enrg    4      2       4        1
  LMP2-grad    5      2       2        1
  DFT-cphf2    0      1       0        0
  PBF-dens     0      1       0        0
  plotting     0      1       0        0
  Rel-grad     0      1     -17        0
  
  idftgrdm  100
  ndftgrdm   50    0    0
  idftgrdf  111
  ndftgrdf   85    0    0
  idftgrdg  111
  ndftgrdg   80    3    0
  idftgrdu  433
  ndftgrdu  105    0    0
  idftgrdd  433
  ndftgrdd  105    0    0
  idftgrdc  433
  ndftgrdc   26    0    0
  idftgrdp  433
  ndftgrdp   18    0    0
  
  number of basis functions....         1680
  
 Input geometry:
                                   angstroms
  atom               x                 y                 z
  C1           -1.7971000000      5.6396000000     -1.7996000000 
  C2           -0.5562000000      4.8993000000     -1.4437000000 
  C3           -1.7315000000      6.7493000000     -2.5444000000 
  C4            0.6305000000      5.3425000000     -1.9117000000 
  C5           -0.6006000000      3.6595000000     -0.6137000000 
  C6            0.6932000000      6.5748000000     -2.7314000000 
  C7            1.8690000000      4.6073000000     -1.5940000000 
  C8           -0.4274000000      7.2423000000     -3.0276000000 
  C9            0.5068000000      2.8945000000     -0.4937000000 
  C10          -1.8303000000      3.2795000000      0.1222000000 
  C11           1.8241000000      3.4576000000     -0.9024000000 
  O12           0.4536000000      1.6984000000      0.1854000000 
  Si13          3.4141000000      2.6118000000     -0.4219000000 
  C14          -2.3758000000      4.0792000000      1.0704000000 
  C15          -2.4465000000      1.9569000000     -0.1729000000 
  C16          -3.6530000000      3.6852000000      1.7140000000 
  C17          -1.7439000000      5.3432000000      1.5313000000 
  C18          -4.2461000000      2.5336000000      1.3831000000 
  C19          -4.2546000000      4.5894000000      2.7141000000 
  C20          -3.6261000000      1.6237000000      0.3943000000 
  Si21         -4.5024000000      0.0081000000      0.0811000000 
  O22          -1.8262000000      1.1195000000     -1.0673000000 
  C23          -2.3418000000      6.1076000000      2.4529000000 
  C24          -3.6378000000      5.7262000000      3.0530000000 
  P25          -0.3952000000      0.4964000000     -0.5675000000 
  O26           0.3103000000     -0.0747000000     -1.7497000000 
  N27          -0.8267000000     -0.4747000000      0.6658000000 
  C28           3.5223000000      1.0701000000     -1.4452000000 
  C29           4.8694000000      3.7125000000     -0.7784000000 
  C30           3.5147000000      2.2902000000      1.4079000000 
  C31          -4.2138000000     -1.1257000000      1.5364000000 
  C32          -6.3202000000      0.4074000000     -0.0586000000 
  C33          -3.9481000000     -0.7858000000     -1.5126000000 
  C34           3.7282000000     -0.1362000000     -0.8940000000 
  C35           3.4241000000      1.1942000000     -2.9198000000 
  C36           5.8532000000      3.3362000000     -1.6130000000 
  C37           4.9595000000      5.0216000000     -0.0878000000 
  C38           2.5841000000      2.7595000000      2.2572000000 
  C39           4.7024000000      1.5858000000      1.9492000000 
  C40          -3.5199000000     -0.7120000000      2.6119000000 
  C41          -4.7712000000     -2.5009000000      1.5201000000 
  C42          -6.7264000000      1.4136000000     -0.8529000000 
  C43          -7.3292000000     -0.3303000000      0.7433000000 
  C44          -3.3263000000     -1.9768000000     -1.5154000000 
  C45          -4.2014000000     -0.1000000000     -2.8042000000 
  C46           3.9263000000     -1.3158000000     -1.7587000000 
  C47           3.8687000000     -1.1947000000     -3.0902000000 
  C48           3.5887000000      0.1193000000     -3.6988000000 
  C49           7.0028000000      4.2326000000     -1.8570000000 
  C50           7.0735000000      5.4176000000     -1.2391000000 
  C51           6.0028000000      5.8302000000     -0.3094000000 
  C52           2.7139000000      2.5193000000      3.7097000000 
  C53           3.7744000000      1.8585000000      4.1886000000 
  C54           4.8223000000      1.3784000000      3.2659000000 
  C55          -3.3257000000     -1.6133000000      3.7665000000 
  C56          -3.8349000000     -2.8501000000      3.7455000000 
  C57          -4.5933000000     -3.3150000000      2.5675000000 
  C58          -8.1607000000      1.7515000000     -0.9596000000 
  C59          -9.0650000000      1.0680000000     -0.2502000000 
  C60          -8.6279000000     -0.0191000000      0.6470000000 
  C61          -2.9661000000     -2.6262000000     -2.7919000000 
  C62          -3.2265000000     -2.0168000000     -3.9533000000 
  C63          -3.8619000000     -0.6856000000     -3.9588000000 
  C64          -2.4947000000     -5.2402000000     -0.2057000000 
  C65          -1.1335000000     -4.9535000000     -0.1503000000 
  C66          -0.2724000000     -5.4514000000     -1.1440000000 
  C67          -0.8093000000     -6.2168000000     -2.1983000000 
  C68          -2.1690000000     -6.4960000000     -2.2469000000 
  C69          -3.0164000000     -6.0090000000     -1.2465000000 
  C70           1.1823000000     -5.3206000000     -1.0573000000 
  N71           1.7914000000     -4.8028000000      0.0367000000 
  S72           3.4419000000     -5.2380000000      0.3386000000 
  O73           3.4425000000     -6.5774000000      0.9166000000 
  O74           4.2055000000     -4.9880000000     -0.8934000000 
  C75           3.9059000000     -3.9961000000      1.5699000000 
  C76           4.9911000000     -3.1654000000      1.3094000000 
  C77           5.3315000000     -2.2587000000      2.3150000000 
  C78           4.5885000000     -2.2481000000      3.4924000000 
  C79           3.5270000000     -3.1468000000      3.6340000000 
  N80           3.1851000000     -4.0185000000      2.6810000000 
  N81           1.0803000000     -2.7252000000     -2.4885000000 
  C82           0.2347000000     -2.5147000000     -3.5048000000 
  C83           0.3841000000     -3.5498000000     -4.4463000000 
  C84           1.3854000000     -4.3882000000     -3.9642000000 
  C85           1.7988000000     -3.9007000000     -2.7002000000 
  H86          -2.7648000000      5.2854000000     -1.4693000000 
  H87          -2.6364000000      7.2851000000     -2.8007000000 
  H88           1.6462000000      6.9395000000     -3.0940000000 
  H89           2.8122000000      5.0184000000     -1.9278000000 
  H90          -0.3814000000      8.1422000000     -3.6272000000 
  H91          -0.7827000000      5.6587000000      1.1481000000 
  H92          -5.1786000000      2.2511000000      1.8581000000 
  H93          -5.1993000000      4.3373000000      3.1812000000 
  H94          -1.8640000000      7.0234000000      2.7768000000 
  H95          -4.0889000000      6.3792000000      3.7891000000 
  H96           3.7802000000     -0.2651000000      0.1771000000 
  H97           3.2293000000      2.1583000000     -3.3731000000 
  H98           5.8314000000      2.3772000000     -2.1111000000 
  H99           4.1788000000      5.3298000000      0.5967000000 
  H100          1.7379000000      3.3313000000      1.9046000000 
  H101          5.4813000000      1.2393000000      1.2813000000 
  H102         -3.0906000000      0.2787000000      2.6582000000 
  H103         -5.3264000000     -2.8522000000      0.6592000000 
  H104         -6.0139000000      2.0110000000     -1.4045000000 
  H105         -7.0329000000     -1.1155000000      1.4212000000 
  H106         -3.0794000000     -2.4804000000     -0.5937000000 
  H107         -4.6459000000      0.8833000000     -2.8264000000 
  H108          4.1199000000     -2.2783000000     -1.3123000000 
  H109          4.0154000000     -2.0606000000     -3.7226000000 
  H110          3.5227000000      0.2117000000     -4.7751000000 
  H111          7.7885000000      3.9265000000     -2.5356000000 
  H112          7.9155000000      6.0741000000     -1.4165000000 
  H113          6.0654000000      6.7866000000      0.1932000000 
  H114          1.9481000000      2.8792000000      4.3845000000 
  H115          3.8701000000      1.6808000000      5.2518000000 
  H116          5.6896000000      0.8632000000      3.6577000000 
  H117         -2.7644000000     -1.2714000000      4.6265000000 
  H118         -3.6897000000     -3.5126000000      4.5889000000 
  H119         -5.0015000000     -4.3173000000      2.5518000000 
  H120         -8.4766000000      2.5562000000     -1.6108000000 
  H121        -10.1159000000      1.3154000000     -0.3254000000 
  H122         -9.3605000000     -0.5582000000      1.2338000000 
  H123         -2.4809000000     -3.5918000000     -2.7871000000 
  H124         -2.9548000000     -2.4895000000     -4.8882000000 
  H125         -4.0451000000     -0.1813000000     -4.8987000000 
  H126         -3.1429000000     -4.8588000000      0.5746000000 
  H127         -0.7619000000     -4.3698000000      0.6830000000 
  H128         -0.1510000000     -6.5948000000     -2.9741000000 
  H129         -2.5688000000     -7.0940000000     -3.0598000000 
  H130         -4.0793000000     -6.2287000000     -1.2806000000 
  H131          1.7525000000     -6.0961000000     -1.5599000000 
  H132          5.5338000000     -3.2305000000      0.3750000000 
  H133          6.1608000000     -1.5730000000      2.1744000000 
  H134          4.8206000000     -1.5574000000      4.2956000000 
  H135          2.9261000000     -3.1631000000      4.5370000000 
  H136          1.1357000000     -2.0815000000     -1.6972000000 
  H137         -0.3951000000     -1.6381000000     -3.4923000000 
  H138         -0.1749000000     -3.6467000000     -5.3657000000 
  H139          1.7931000000     -5.2653000000     -4.4492000000 
  H140          2.7819000000     -4.0264000000     -2.2709000000 
  S141         -0.0444000000     -1.6099000000      1.3772000000 
  O142          1.0946000000     -2.2069000000      0.5950000000 
  C143          0.8189000000     -0.7727000000      2.8199000000 
  O144         -0.9313000000     -2.5906000000      2.0171000000 
  F145          0.0919000000      0.2482000000      3.2770000000 
  F146          0.9932000000     -1.6495000000      3.8226000000 
  F147          2.0202000000     -0.3205000000      2.4401000000 
  H148          1.4425000000     -3.9278000000      0.4834000000 
   
  principal moments of inertia:
        amu*angstrom^2:    22160.60353    23379.37197    33450.31156
                g*cm^2: 3.67985433E-36 3.88223557E-36 5.55455422E-36
   
  rotational constants:
               cm^(-1):      0.00076070      0.00072105      0.00050396
                   GHz:      0.02280529      0.02161645      0.01510835
   
  Molecular weight:    1308.28 amu
   
  Stoichiometry: Si2C73PN4H56S2O7F3
[running at reduced cpu priority]
  Molecular Point Group: C1      
  Point Group used: C1
  
  nuclear repulsion energy.......   20741.008652253 hartrees
 
 Non-default options chosen:
   SCF calculation type: DFT(m06-2x)                 
   DFT=M06-2X
   Solvation energy will be computed using PBF
     -solute cavity energy will not be included
     -surface area terms will not be included
   Highest accuracy cutoffs used in SCF
   Solvent: other                                                           
   Internal dielectric constant:    1.000
   Continuum dielectric constant:   2.380
   Solvent probe molecule radius:   2.760
  
 Temporary integer options set:
     73=  2
  
  atom       vdw   vdw2    cov     mass  grid  daf  charge   basis
  C1        1.949  1.900  0.770   12.000    Y    Y      Y    6-31g**
  C2        1.949  1.900  0.770   12.000    Y    Y      Y    6-31g**
  C3        1.949  1.900  0.770   12.000    Y    Y      Y    6-31g**
  C4        1.949  1.900  0.770   12.000    Y    Y      Y    6-31g**
  C5        1.949  1.900  0.770   12.000    Y    Y      Y    6-31g**
  C6        1.949  1.900  0.770   12.000    Y    Y      Y    6-31g**
  C7        1.949  1.900  0.770   12.000    Y    Y      Y    6-31g**
  C8        1.949  1.900  0.770   12.000    Y    Y      Y    6-31g**
  C9        1.949  1.900  0.770   12.000    Y    Y      Y    6-31g**
  C10       1.949  1.900  0.770   12.000    Y    Y      Y    6-31g**
  C11       1.949  1.900  0.770   12.000    Y    Y      Y    6-31g**
  O12       1.702  1.600  0.730   15.995    Y    Y      Y    6-31g**
  Si13      2.217  2.147  1.110   27.977    Y    Y      Y    6-31g**
  C14       1.949  1.900  0.770   12.000    Y    Y      Y    6-31g**
  C15       1.949  1.900  0.770   12.000    Y    Y      Y    6-31g**
  C16       1.949  1.900  0.770   12.000    Y    Y      Y    6-31g**
  C17       1.949  1.900  0.770   12.000    Y    Y      Y    6-31g**
  C18       1.949  1.900  0.770   12.000    Y    Y      Y    6-31g**
  C19       1.949  1.900  0.770   12.000    Y    Y      Y    6-31g**
  C20       1.949  1.900  0.770   12.000    Y    Y      Y    6-31g**
  Si21      2.217  2.147  1.110   27.977    Y    Y      Y    6-31g**
  O22       1.702  1.600  0.730   15.995    Y    Y      Y    6-31g**
  C23       1.949  1.900  0.770   12.000    Y    Y      Y    6-31g**
  C24       1.949  1.900  0.770   12.000    Y    Y      Y    6-31g**
  P25       2.147  2.074  1.060   30.974    Y    Y      Y    6-31g**
  O26       1.702  1.600  0.730   15.995    Y    Y      Y    6-31g**
  N27       1.831  1.600  0.750   14.003    Y    Y      Y    6-31g**
  C28       1.949  1.900  0.770   12.000    Y    Y      Y    6-31g**
  C29       1.949  1.900  0.770   12.000    Y    Y      Y    6-31g**
  C30       1.949  1.900  0.770   12.000    Y    Y      Y    6-31g**
  C31       1.949  1.900  0.770   12.000    Y    Y      Y    6-31g**
  C32       1.949  1.900  0.770   12.000    Y    Y      Y    6-31g**
  C33       1.949  1.900  0.770   12.000    Y    Y      Y    6-31g**
  C34       1.949  1.900  0.770   12.000    Y    Y      Y    6-31g**
  C35       1.949  1.900  0.770   12.000    Y    Y      Y    6-31g**
  C36       1.949  1.900  0.770   12.000    Y    Y      Y    6-31g**
  C37       1.949  1.900  0.770   12.000    Y    Y      Y    6-31g**
  C38       1.949  1.900  0.770   12.000    Y    Y      Y    6-31g**
  C39       1.949  1.900  0.770   12.000    Y    Y      Y    6-31g**
  C40       1.949  1.900  0.770   12.000    Y    Y      Y    6-31g**
  C41       1.949  1.900  0.770   12.000    Y    Y      Y    6-31g**
  C42       1.949  1.900  0.770   12.000    Y    Y      Y    6-31g**
  C43       1.949  1.900  0.770   12.000    Y    Y      Y    6-31g**
  C44       1.949  1.900  0.770   12.000    Y    Y      Y    6-31g**
  C45       1.949  1.900  0.770   12.000    Y    Y      Y    6-31g**
  C46       1.949  1.900  0.770   12.000    Y    Y      Y    6-31g**
  C47       1.949  1.900  0.770   12.000    Y    Y      Y    6-31g**
  C48       1.949  1.900  0.770   12.000    Y    Y      Y    6-31g**
  C49       1.949  1.900  0.770   12.000    Y    Y      Y    6-31g**
  C50       1.949  1.900  0.770   12.000    Y    Y      Y    6-31g**
  C51       1.949  1.900  0.770   12.000    Y    Y      Y    6-31g**
  C52       1.949  1.900  0.770   12.000    Y    Y      Y    6-31g**
  C53       1.949  1.900  0.770   12.000    Y    Y      Y    6-31g**
  C54       1.949  1.900  0.770   12.000    Y    Y      Y    6-31g**
  C55       1.949  1.900  0.770   12.000    Y    Y      Y    6-31g**
  C56       1.949  1.900  0.770   12.000    Y    Y      Y    6-31g**
  C57       1.949  1.900  0.770   12.000    Y    Y      Y    6-31g**
  C58       1.949  1.900  0.770   12.000    Y    Y      Y    6-31g**
  C59       1.949  1.900  0.770   12.000    Y    Y      Y    6-31g**
  C60       1.949  1.900  0.770   12.000    Y    Y      Y    6-31g**
  C61       1.949  1.900  0.770   12.000    Y    Y      Y    6-31g**
  C62       1.949  1.900  0.770   12.000    Y    Y      Y    6-31g**
  C63       1.949  1.900  0.770   12.000    Y    Y      Y    6-31g**
  C64       1.949  1.900  0.770   12.000    Y    Y      Y    6-31g**
  C65       1.949  1.900  0.770   12.000    Y    Y      Y    6-31g**
  C66       1.949  1.900  0.770   12.000    Y    Y      Y    6-31g**
  C67       1.949  1.900  0.770   12.000    Y    Y      Y    6-31g**
  C68       1.949  1.900  0.770   12.000    Y    Y      Y    6-31g**
  C69       1.949  1.900  0.770   12.000    Y    Y      Y    6-31g**
  C70       1.949  1.900  0.770   12.000    Y    Y      Y    6-31g**
  N71       1.831  1.600  0.750   14.003    Y    Y      Y    6-31g**
  S72       2.070  1.900  1.020   31.972    Y    Y      Y    6-31g**
  O73       1.702  1.600  0.730   15.995    Y    Y      Y    6-31g**
  O74       1.702  1.600  0.730   15.995    Y    Y      Y    6-31g**
  C75       1.949  1.900  0.770   12.000    Y    Y      Y    6-31g**
  C76       1.949  1.900  0.770   12.000    Y    Y      Y    6-31g**
  C77       1.949  1.900  0.770   12.000    Y    Y      Y    6-31g**
  C78       1.949  1.900  0.770   12.000    Y    Y      Y    6-31g**
  C79       1.949  1.900  0.770   12.000    Y    Y      Y    6-31g**
  N80       1.831  1.600  0.750   14.003    Y    Y      Y    6-31g**
  N81       1.831  1.600  0.750   14.003    Y    Y      Y    6-31g**
  C82       1.949  1.900  0.770   12.000    Y    Y      Y    6-31g**
  C83       1.949  1.900  0.770   12.000    Y    Y      Y    6-31g**
  C84       1.949  1.900  0.770   12.000    Y    Y      Y    6-31g**
  C85       1.949  1.900  0.770   12.000    Y    Y      Y    6-31g**
  H86       1.597  1.150  0.320    1.008    Y    Y      Y    6-31g**
  H87       1.597  1.150  0.320    1.008    Y    Y      Y    6-31g**
  H88       1.597  1.150  0.320    1.008    Y    Y      Y    6-31g**
  H89       1.597  1.150  0.320    1.008    Y    Y      Y    6-31g**
  H90       1.597  1.150  0.320    1.008    Y    Y      Y    6-31g**
  H91       1.597  1.150  0.320    1.008    Y    Y      Y    6-31g**
  H92       1.597  1.150  0.320    1.008    Y    Y      Y    6-31g**
  H93       1.597  1.150  0.320    1.008    Y    Y      Y    6-31g**
  H94       1.597  1.150  0.320    1.008    Y    Y      Y    6-31g**
  H95       1.597  1.150  0.320    1.008    Y    Y      Y    6-31g**
  H96       1.597  1.150  0.320    1.008    Y    Y      Y    6-31g**
  H97       1.597  1.150  0.320    1.008    Y    Y      Y    6-31g**
  H98       1.597  1.150  0.320    1.008    Y    Y      Y    6-31g**
  H99       1.597  1.150  0.320    1.008    Y    Y      Y    6-31g**
  H100      1.597  1.150  0.320    1.008    Y    Y      Y    6-31g**
  H101      1.597  1.150  0.320    1.008    Y    Y      Y    6-31g**
  H102      1.597  1.150  0.320    1.008    Y    Y      Y    6-31g**
  H103      1.597  1.150  0.320    1.008    Y    Y      Y    6-31g**
  H104      1.597  1.150  0.320    1.008    Y    Y      Y    6-31g**
  H105      1.597  1.150  0.320    1.008    Y    Y      Y    6-31g**
  H106      1.597  1.150  0.320    1.008    Y    Y      Y    6-31g**
  H107      1.597  1.150  0.320    1.008    Y    Y      Y    6-31g**
  H108      1.597  1.150  0.320    1.008    Y    Y      Y    6-31g**
  H109      1.597  1.150  0.320    1.008    Y    Y      Y    6-31g**
  H110      1.597  1.150  0.320    1.008    Y    Y      Y    6-31g**
  H111      1.597  1.150  0.320    1.008    Y    Y      Y    6-31g**
  H112      1.597  1.150  0.320    1.008    Y    Y      Y    6-31g**
  H113      1.597  1.150  0.320    1.008    Y    Y      Y    6-31g**
  H114      1.597  1.150  0.320    1.008    Y    Y      Y    6-31g**
  H115      1.597  1.150  0.320    1.008    Y    Y      Y    6-31g**
  H116      1.597  1.150  0.320    1.008    Y    Y      Y    6-31g**
  H117      1.597  1.150  0.320    1.008    Y    Y      Y    6-31g**
  H118      1.597  1.150  0.320    1.008    Y    Y      Y    6-31g**
  H119      1.597  1.150  0.320    1.008    Y    Y      Y    6-31g**
  H120      1.597  1.150  0.320    1.008    Y    Y      Y    6-31g**
  H121      1.597  1.150  0.320    1.008    Y    Y      Y    6-31g**
  H122      1.597  1.150  0.320    1.008    Y    Y      Y    6-31g**
  H123      1.597  1.150  0.320    1.008    Y    Y      Y    6-31g**
  H124      1.597  1.150  0.320    1.008    Y    Y      Y    6-31g**
  H125      1.597  1.150  0.320    1.008    Y    Y      Y    6-31g**
  H126      1.597  1.150  0.320    1.008    Y    Y      Y    6-31g**
  H127      1.597  1.150  0.320    1.008    Y    Y      Y    6-31g**
  H128      1.597  1.150  0.320    1.008    Y    Y      Y    6-31g**
  H129      1.597  1.150  0.320    1.008    Y    Y      Y    6-31g**
  H130      1.597  1.150  0.320    1.008    Y    Y      Y    6-31g**
  H131      1.597  1.150  0.320    1.008    Y    Y      Y    6-31g**
  H132      1.597  1.150  0.320    1.008    Y    Y      Y    6-31g**
  H133      1.597  1.150  0.320    1.008    Y    Y      Y    6-31g**
  H134      1.597  1.150  0.320    1.008    Y    Y      Y    6-31g**
  H135      1.597  1.150  0.320    1.008    Y    Y      Y    6-31g**
  H136      1.597  1.150  0.320    1.008    Y    Y      Y    6-31g**
  H137      1.597  1.150  0.320    1.008    Y    Y      Y    6-31g**
  H138      1.597  1.150  0.320    1.008    Y    Y      Y    6-31g**
  H139      1.597  1.150  0.320    1.008    Y    Y      Y    6-31g**
  H140      1.597  1.150  0.320    1.008    Y    Y      Y    6-31g**
  S141      2.070  1.900  1.020   31.972    Y    Y      Y    6-31g**
  O142      1.702  1.600  0.730   15.995    Y    Y      Y    6-31g**
  C143      1.949  1.900  0.770   12.000    Y    Y      Y    6-31g**
  O144      1.702  1.600  0.730   15.995    Y    Y      Y    6-31g**
  F145      1.736  1.682  0.720   18.998    Y    Y      Y    6-31g**
  F146      1.736  1.682  0.720   18.998    Y    Y      Y    6-31g**
  F147      1.736  1.682  0.720   18.998    Y    Y      Y    6-31g**
  H148      1.597  1.150  0.320    1.008    Y    Y      Y    6-31g**
  
  Peak memory usage:    768 Mb
  
  end of program pre
   
 Time(pre)  user:        0.9  user+sys:        0.9  wallclock:        4.0
  
  start of program onee
  
  smallest eigenvalue of S:    2.180E-04
  number of canonical orbitals.....         1673
  Peak memory usage:    900 Mb
  
  end of program onee
   
 Time(onee)  user:       16.7  user+sys:       16.7  wallclock:       58.8
  
  start of program hfig
  
  initial wavefunction generated automatically from atomic wavefunctions
 
  Irreducible     Total no   No of occupied orbitals 
  representation  orbitals   Shell_1  Shell_2    ...
  No Symm         1673        340
  ------------------------
  Orbital occupation/shell    1.000
 
  Peak memory usage:    833 Mb
  
  end of program hfig
   
 Time(hfig)  user:       26.8  user+sys:       26.8  wallclock:       95.8
  
  start of program probe
  
  Peak memory usage:    826 Mb
  
  end of program probe
   
 Time(probe)  user:       18.7  user+sys:       18.7  wallclock:       59.8
  
  start of program grid
  
   grid     grid set  grid #  grid sym
  ------    --------  ------  --------
  coarse        0        0        1
  medium        2        1        1
  fine          0        0        1
  ultrafine     4        2        1
  charge       -1        3        1
  gradient      4        2        1
  density       0        0        1
  DFT-fine    -13        4        1
  DFT-med.    -13        4        1
  DFT-grad    -13        4        1
  DFT-der2      0        0        1
  DFT-cphf      0        0        1
  LMP2-enrg     4        2        1
  LMP2-grad     2        1        1
  DFT-cphf2     0        0        1
  PBF-dens      0        0        1
  plotting      0        0        1
  Rel-grad    -17        0        1
  
  number of gridpoints: 
     atom        C1       C2       C3       C4       C5       C6       C7
  grid # 1       97      101       94      102      100       96       92
  grid # 2      337      359      337      367      358      338      336
  grid # 3       36       32       41       47       16       45       24
  grid # 4    48124    48124    48124    48124    48124    48124    48124
   
  number of gridpoints: 
     atom        C8       C9      C10      C11      O12     Si13      C14
  grid # 1       94       96      100      100      113      469      101
  grid # 2      336      352      356      358      437      469      359
  grid # 3       47       17       13       13       40        6       27
  grid # 4    48124    48124    48124    48124    47716    38542    48124
   
  number of gridpoints: 
     atom       C15      C16      C17      C18      C19      C20     Si21
  grid # 1       98      101       96       92       97      100      476
  grid # 2      359      367      338      330      339      360      476
  grid # 3       22       44       31       18       47       10        7
  grid # 4    48124    48124    48124    48124    48124    48124    38542
   
  number of gridpoints: 
     atom       O22      C23      C24      P25      O26      N27      C28
  grid # 1      112       95       94      448      116      109      100
  grid # 2      438      338      337      448      469      404      357
  grid # 3       69       38       49       12       84       22        7
  grid # 4    47716    48124    48124    38640    47716    47928    48124
   
  number of gridpoints: 
     atom       C29      C30      C31      C32      C33      C34      C35
  grid # 1      100       99      100      101      102       92       93
  grid # 2      359      358      357      361      359      334      330
  grid # 3       11       10        8       21       20       16       12
  grid # 4    48124    48124    48124    48124    48124    48124    48124
   
  number of gridpoints: 
     atom       C36      C37      C38      C39      C40      C41      C42
  grid # 1       92       94       92       94       93       94       92
  grid # 2      337      333      332      334      333      330      336
  grid # 3       27       22       14       21       19        9       27
  grid # 4    48124    48124    48124    48124    48124    48124    48124
   
  number of gridpoints: 
     atom       C43      C44      C45      C46      C47      C48      C49
  grid # 1       97       92       97       93       93       92       94
  grid # 2      340      335      336      330      333      333      335
  grid # 3       36       20       32       22       25       24       44
  grid # 4    48124    48124    48124    48124    48124    48124    48124
   
  number of gridpoints: 
     atom       C50      C51      C52      C53      C54      C55      C56
  grid # 1       94       93       93       93       93       93       93
  grid # 2      336      335      332      333      332      331      333
  grid # 3       46       39       25       30       30       27       29
  grid # 4    48124    48124    48124    48124    48124    48124    48124
   
  number of gridpoints: 
     atom       C57      C58      C59      C60      C61      C62      C63
  grid # 1       92       94       94       94       94       94       93
  grid # 2      332      336      336      337      333      334      336
  grid # 3       20       42       46       45       24       30       38
  grid # 4    48124    48124    48124    48124    48124    48124    48124
   
  number of gridpoints: 
     atom       C64      C65      C66      C67      C68      C69      C70
  grid # 1       96       96       99       96       96       96       93
  grid # 2      329      330      357      335      331      329      326
  grid # 3       29       31       32       31       29       30        7
  grid # 4    48124    48124    48124    48124    48124    48124    48124
   
  number of gridpoints: 
     atom       N71      S72      O73      O74      C75      C76      C77
  grid # 1       99      440      123      120       98       96       96
  grid # 2      353      440      517      476      358      328      329
  grid # 3       22       11      353      175       27       30       32
  grid # 4    47928    48492    47716    47716    48124    48124    48124
   
  number of gridpoints: 
     atom       C78      C79      N80      N81      C82      C83      C84
  grid # 1       96       96      113       97       93       93       93
  grid # 2      330      335      421      333      330      329      325
  grid # 3       31       30      107       13       17       21       13
  grid # 4    48124    48124    47928    47928    48124    48124    48124
   
  number of gridpoints: 
     atom       C85      H86      H87      H88      H89      H90      H91
  grid # 1       93      113      118      118      109      118      111
  grid # 2      327      436      452      446      428      453      433
  grid # 3        7      263      419      363      173      424      223
  grid # 4    48124    48426    48426    48426    48426    48426    48426
   
  number of gridpoints: 
     atom       H92      H93      H94      H95      H96      H97      H98
  grid # 1      113      118      118      118      107      110      111
  grid # 2      427      443      448      450      415      436      437
  grid # 3      201      363      408      419      106      263      234
  grid # 4    48426    48426    48426    48426    48426    48426    48426
   
  number of gridpoints: 
     atom       H99     H100     H101     H102     H103     H104     H105
  grid # 1      113      111      111      110      111      109      111
  grid # 2      437      423      426      422      426      425      429
  grid # 3      263      173      210      170      198      186      220
  grid # 4    48426    48426    48426    48426    48426    48426    48426
   
  number of gridpoints: 
     atom      H106     H107     H108     H109     H110     H111     H112
  grid # 1      106      110      107      115      117      118      118
  grid # 2      411      426      413      442      451      453      453
  grid # 3       82      214       90      297      396      420      424
  grid # 4    48426    48426    48426    48426    48426    48426    48426
   
  number of gridpoints: 
     atom      H113     H114     H115     H116     H117     H118     H119
  grid # 1      118      117      117      112      116      117      115
  grid # 2      452      449      451      437      446      452      446
  grid # 3      420      362      384      274      341      411      342
  grid # 4    48426    48426    48426    48426    48426    48426    48426
   
  number of gridpoints: 
     atom      H120     H121     H122     H123     H124     H125     H126
  grid # 1      118      118      118      109      116      118      111
  grid # 2      452      453      453      420      444      452      424
  grid # 3      417      424      423      136      315      416      156
  grid # 4    48426    48426    48426    48426    48426    48426    48426
   
  number of gridpoints: 
     atom      H127     H128     H129     H130     H131     H132     H133
  grid # 1      106      111      117      117      108      112      114
  grid # 2      414      435      450      449      422      433      441
  grid # 3      130      238      399      383      185      243      294
  grid # 4    48426    48426    48426    48426    48426    48426    48426
   
  number of gridpoints: 
     atom      H134     H135     H136     H137     H138     H139     H140
  grid # 1      113      113      103      108      115      115      104
  grid # 2      439      442      406      428      453      448      406
  grid # 3      268      337       67      176      379      367       72
  grid # 4    48426    48426    48426    48426    48426    48426    48426
   
  number of gridpoints: 
     atom      S141     O142     C143     O144     F145     F146     F147
  grid # 1      438      115       90      117      521      523      511
  grid # 2      438      446      320      474      521      523      511
  grid # 3        9       36        7       87      144      147       48
  grid # 4    48492    47716    48124    47716    47062    47062    47062
   
  number of gridpoints: 
     atom      H148    total
  grid # 1      101    18351
  grid # 2      390    57799
  grid # 3       58    18950
  grid # 4    48426  7104526
   
  Peak memory usage:    795 Mb
  
  end of program grid
   
 Time(grid)  user:     1110.0  user+sys:     1110.0  wallclock:     3513.9
  
  start of program rwr
  
  Peak memory usage:    814 Mb
  
  end of program rwr
   
 Time(rwr)  user:       77.6  user+sys:       77.6  wallclock:      258.6
  
  start of program scf
  
 number of electrons..........        680
 number of alpha electrons....        340
 number of beta electrons.....        340
 number of orbitals, total....       1673
 number of doubly-occ'd orbs..        340
 number of open shell orbs....          0
 number of occupied orbitals..        340
 number of virtual orbitals...       1333
 number of hamiltonians.......          1
 number of shells.............          1
 SCF type: DFT=M06-2X
 Energy computed with NOPS off.
  
       i  u  d  i  g                   
       t  p  i  c  r                                 RMS    maximum
       e  d  i  u  i                       energy  density   DIIS  
       r  t  s  t  d       total energy    change  change    error 
  
etot    1  N  N  1  U   -5562.73890548599           3.7E-03  1.4E-01
etot    2  N  Y  1  U   -5532.26970198071 -3.0E+01  1.8E-02  1.1E-01
etot    3  N  Y  1  U   -5226.07574588832 -3.1E+02  1.7E-02  3.4E-01
etot    4  N  Y  1  U   -5567.32769762066  3.4E+02  3.7E-03  8.4E-02
etot    5  N  Y  1  U   -5561.81665460183 -5.5E+00  3.3E-03  7.0E-02
etot    6  N  Y  1  U   -5565.33809646366  3.5E+00  1.6E-03  7.5E-02
etot    7  N  Y  1  U   -5575.33936185232  1.0E+01  4.7E-04  1.8E-02
etot    8  N  Y  1  U   -5575.47104006883  1.3E-01  2.1E-04  9.1E-03
etot    9  N  Y  1  U   -5575.54474424801  7.4E-02  5.7E-05  3.2E-03
etot   10  N  Y  1  U   -5575.54953629053  4.8E-03  2.4E-05  1.2E-03
etot   11  N  Y  1  U   -5575.55027268710  7.4E-04  9.4E-06  3.7E-04
etot   12  N  Y  1  U   -5575.55041627212  1.4E-04  4.7E-06  2.0E-04
etot   13  N  N  1  U   -5575.55045092455  3.5E-05  0.0E+00  0.0E+00
  
  
 Energy components, in hartrees:
   (A)  Nuclear repulsion............   20741.00865225311
   (E)  Total one-electron terms.....  -49009.13754688184
   (F)    Electron-nuclear...........  -54545.11663140327
   (H)    Kinetic....................    5535.97908452142
   (I)  Total two-electron terms.....   22692.57844370418
   (J)    Coulomb....................   23343.81450569822
   (K)    Exchange+Correlation.......    -651.23606199405
   (L)  Electronic energy............  -26316.55910317766  (E+I)
   (M)  -V/T.........................       2.00714803394  (-(A+F+I)/H)
   (N)  Total energy.................   -5575.55045092455  (A+L)
   (O)  Gas phase energy.............   -5575.55045092455
  
 SCFE: SCF energy: DFT(m06-2x)     -5575.55045092455 hartrees   iterations:  13
  
 
 HOMO energy:    -0.25140
 LUMO energy:    -0.07716
 
  Orbital energies (hartrees): 
   -90.18689   -90.15399   -78.19935   -67.00682   -67.00225   -25.28979
   -25.28815   -25.28793   -19.68435   -19.67962   -19.66898   -19.66201
   -19.63682   -19.62123   -19.58892   -14.83462   -14.81472   -14.80162
   -14.73651   -10.80308   -10.67774   -10.64685   -10.62064   -10.61816
   -10.61787   -10.60378   -10.60243   -10.59451   -10.59416   -10.58985
   -10.58970   -10.57981   -10.57372   -10.57066   -10.56947   -10.56855
   -10.56801   -10.56573   -10.56516   -10.56446   -10.56359   -10.56099
   -10.55900   -10.55842   -10.55506   -10.55406   -10.55351   -10.55306
   -10.55252   -10.55237   -10.55236   -10.55196   -10.55186   -10.55159
   -10.55119   -10.55115   -10.55090   -10.55030   -10.55011   -10.54976
   -10.54952   -10.54867   -10.54805   -10.54780   -10.54600   -10.54538
   -10.54466   -10.54454   -10.54369   -10.54271   -10.54194   -10.54189
   -10.54187   -10.54185   -10.54104   -10.54056   -10.53972   -10.53967
   -10.53842   -10.53741   -10.53730   -10.53729   -10.53569   -10.53530
   -10.53485   -10.53424   -10.53367   -10.53273   -10.52729   -10.52721
   -10.52317   -10.52267    -8.49785    -8.46211    -6.97865    -6.42017
    -6.41883    -6.41820    -6.38434    -6.38350    -6.38347    -5.53854
    -5.53314    -5.09698    -5.09593    -5.09474    -3.84834    -3.84810
    -3.84768    -3.84297    -3.84261    -3.84245    -1.45484    -1.36414
    -1.36313    -1.25918    -1.22068    -1.21337    -1.17612    -1.14447
    -1.10269    -1.09836    -1.09608    -1.08222    -1.07155    -0.99023
    -0.97955    -0.97935    -0.96549    -0.94616    -0.94265    -0.93857
    -0.93795    -0.93725    -0.93228    -0.93009    -0.92038    -0.91263
    -0.90874    -0.88890    -0.88815    -0.88430    -0.85934    -0.85188
    -0.84380    -0.83875    -0.83768    -0.83588    -0.83317    -0.83287
    -0.83003    -0.82987    -0.82707    -0.82640    -0.82476    -0.82390
    -0.82358    -0.82267    -0.82245    -0.81931    -0.81559    -0.81448
    -0.79843    -0.76884    -0.75946    -0.75196    -0.72973    -0.72347
    -0.70670    -0.70257    -0.70080    -0.69713    -0.69682    -0.68776
    -0.68180    -0.68068    -0.67971    -0.67915    -0.67670    -0.67611
    -0.67513    -0.67399    -0.66907    -0.66773    -0.66315    -0.66258
    -0.66162    -0.66159    -0.66066    -0.65928    -0.65491    -0.65205
    -0.64690    -0.63955    -0.63115    -0.62206    -0.62005    -0.61676
    -0.60721    -0.59982    -0.59742    -0.59066    -0.58809    -0.58354
    -0.58168    -0.57859    -0.57768    -0.57472    -0.57188    -0.57132
    -0.56907    -0.56204    -0.55896    -0.55853    -0.55687    -0.55195
    -0.54799    -0.54656    -0.54427    -0.53848    -0.53645    -0.52872
    -0.52645    -0.52535    -0.52269    -0.52071    -0.52007    -0.51756
    -0.51711    -0.51646    -0.51306    -0.51144    -0.50943    -0.50868
    -0.50834    -0.50610    -0.50592    -0.50564    -0.50275    -0.50241
    -0.50066    -0.50063    -0.49875    -0.49730    -0.49616    -0.49485
    -0.49412    -0.49380    -0.49232    -0.49029    -0.48867    -0.48536
    -0.48499    -0.48281    -0.48163    -0.47785    -0.47737    -0.47506
    -0.47487    -0.47290    -0.47203    -0.47199    -0.46809    -0.46200
    -0.45793    -0.45219    -0.45071    -0.45039    -0.45022    -0.44665
    -0.44379    -0.43740    -0.43663    -0.43579    -0.43342    -0.42965
    -0.42813    -0.42579    -0.42408    -0.42086    -0.42028    -0.41908
    -0.41785    -0.41566    -0.41544    -0.41320    -0.41020    -0.40792
    -0.40391    -0.39996    -0.39742    -0.39736    -0.39536    -0.39428
    -0.39234    -0.39105    -0.38719    -0.38593    -0.38441    -0.38193
    -0.38083    -0.37844    -0.37619    -0.37502    -0.37381    -0.36479
    -0.36057    -0.35771    -0.35681    -0.35031    -0.34973    -0.34970
    -0.34397    -0.34071    -0.33950    -0.33559    -0.33323    -0.33025
    -0.32811    -0.32411    -0.32383    -0.32046    -0.31475    -0.30668
    -0.30180    -0.30103    -0.29607    -0.29517    -0.29437    -0.29357
    -0.29021    -0.28917    -0.28689    -0.28477    -0.28424    -0.28245
    -0.28131    -0.27131    -0.27127    -0.25140    -0.07716    -0.03392
    -0.01729    -0.01484     0.00090     0.01518     0.01588     0.01872
     0.02115     0.02267
 
  Peak memory usage:   1028 Mb
  
  end of program scf
   
 Time(scf)  user:    37211.8  user+sys:    37211.8  wallclock:   117390.9
  
  start of program ch
  
  gridpoints used for charge fit        16384
    out of a possible maximum of        18950
  
   Electrostatic potential fitting constrained to reproduce
     total charge:                yes
     dipole moment:               no 
     traceless quadrupole moment: no 
     traceless octapole moment:   no 
  
  Atomic charges from electrostatic potential: 
   
 Atom       C1           C2           C3           C4           C5      
 Charge   -0.09078     -0.03815     -0.18924      0.21979      0.04226
   
 Atom       C6           C7           C8           C9           C10     
 Charge   -0.23685     -0.36818     -0.09395      0.02946     -0.12297
   
 Atom       C11          O12          Si13         C14          C15     
 Charge    0.15161     -0.33819     -0.23503      0.08245      0.20181
   
 Atom       C16          C17          C18          C19          C20     
 Charge    0.26728     -0.14830     -0.44340     -0.26718      0.03505
   
 Atom       Si21         O22          C23          C24          P25     
 Charge   -0.06841     -0.30198     -0.17632     -0.09053      1.02701
   
 Atom       O26          N27          C28          C29          C30     
 Charge   -0.61043     -0.67967      0.36660      0.14595      0.22779
   
 Atom       C31          C32          C33          C34          C35     
 Charge   -0.01664     -0.00673      0.20341     -0.27484     -0.27747
   
 Atom       C36          C37          C38          C39          C40     
 Charge   -0.12705     -0.20449     -0.19877     -0.25354     -0.01598
   
 Atom       C41          C42          C43          C44          C45     
 Charge    0.03119     -0.07731     -0.03415     -0.16545     -0.27817
   
 Atom       C46          C47          C48          C49          C50     
 Charge   -0.09613     -0.15435     -0.07632     -0.14923     -0.14989
   
 Atom       C51          C52          C53          C54          C55     
 Charge   -0.10474     -0.09802     -0.19327     -0.06194     -0.25301
   
 Atom       C56          C57          C58          C59          C60     
 Charge   -0.07594     -0.17995     -0.19295     -0.08693     -0.19981
   
 Atom       C61          C62          C63          C64          C65     
 Charge   -0.10009     -0.10947     -0.12171     -0.06011     -0.09653
   
 Atom       C66          C67          C68          C69          C70     
 Charge    0.09401     -0.15462     -0.09809     -0.15083      0.00815
   
 Atom       N71          S72          O73          O74          C75     
 Charge   -0.28994      0.63295     -0.38348     -0.43193      0.56312
   
 Atom       C76          C77          C78          C79          N80     
 Charge   -0.42573      0.20361     -0.46187      0.44175     -0.61955
   
 Atom       N81          C82          C83          C84          C85     
 Charge    0.10946     -0.16726     -0.13925     -0.27819     -0.00935
   
 Atom       H86          H87          H88          H89          H90     
 Charge    0.11154      0.14858      0.14490      0.17775      0.12991
   
 Atom       H91          H92          H93          H94          H95     
 Charge    0.12056      0.21816      0.15387      0.14505      0.12692
   
 Atom       H96          H97          H98          H99          H100    
 Charge    0.10711      0.14988      0.08856      0.13560      0.15115
   
 Atom       H101         H102         H103         H104         H105    
 Charge    0.13055      0.10880      0.06138      0.11689      0.05934
   
 Atom       H106         H107         H108         H109         H110    
 Charge    0.12301      0.16638      0.10209      0.11417      0.12249
   
 Atom       H111         H112         H113         H114         H115    
 Charge    0.13687      0.13457      0.12639      0.12893      0.13927
   
 Atom       H116         H117         H118         H119         H120    
 Charge    0.10936      0.16000      0.12610      0.11229      0.13614
   
 Atom       H121         H122         H123         H124         H125    
 Charge    0.12221      0.14394      0.06147      0.10987      0.12983
   
 Atom       H126         H127         H128         H129         H130    
 Charge    0.11627      0.13249      0.11970      0.13689      0.14746
   
 Atom       H131         H132         H133         H134         H135    
 Charge    0.18899      0.19533      0.10788      0.18862      0.07136
   
 Atom       H136         H137         H138         H139         H140    
 Charge    0.24351      0.20808      0.15472      0.17756      0.11169
   
 Atom       S141         O142         C143         O144         F145    
 Charge    0.91070     -0.52380      0.42401     -0.46832     -0.13693
   
 Atom       F146         F147         H148    
 Charge   -0.17065     -0.11520      0.20367
  
  sum of atomic charges:     0.000000
   
 RMS Error   1.03E-03 hartrees
 
  Peak memory usage:    816 Mb
  
  end of program ch
   
 Time(ch)  user:       18.9  user+sys:       18.9  wallclock:       56.9
  
  start of program post
  
  Writing input files for PBF
  Peak memory usage:    759 Mb
  
  end of program post
   
 Time(post)  user:        0.9  user+sys:        0.9  wallclock:        3.2

  start of program pbf

Pbf Version 4.10

Molecular surface area:      832.78779   [A2]
Reaction field energy:       -19.03215   [kT]
  Peak memory usage: 721 Mb

  end of program pbf

 Time(pbf)  user:        8.0  user+sys:        8.1  wallclock:       23.4
  
  start of program solv
  
   number of surface charges from PBF   13206
   sum of surface charges     -0.00024
   
  nuclear repulsion energy.......   20741.008652253 hartrees
  Peak memory usage:    894 Mb
  
  end of program solv
   
 Time(solv)  user:       37.2  user+sys:       37.2  wallclock:      110.9
  
  start of program scf
  
 Energy computed with NOPS off.
  
       i  u  d  i  g                   
       t  p  i  c  r                                 RMS    maximum
       e  d  i  u  i                       energy  density   DIIS  
       r  t  s  t  d       total energy    change  change    error 
  
etot    1  N  N  1  U   -5575.58995859138           5.5E-05  1.5E-03
etot    2  N  Y  1  U   -5575.59077971615  8.2E-04  1.8E-05  8.7E-04
etot    3  N  Y  1  U   -5575.59107439174  2.9E-04  5.7E-06  3.9E-04
etot    4  N  Y  1  U   -5575.59113654251  6.2E-05  2.2E-06  1.3E-04
etot    5  N  N  1  U   -5575.59114279213  6.2E-06  0.0E+00  0.0E+00
  
  
 Energy components, in hartrees:
   (A)  Total zero-electron terms....   20743.68184987377
   (B)    Nuclear-nuclear............   20741.00865225311
   (C)    Nuclear-solvent............       2.67319762066
   (E)  Total one-electron terms.....  -49013.38019675011
   (F)    Electron-nuclear...........  -54546.69876820261
   (G)    Electron-solvent...........      -2.71507731293
   (H)    Kinetic....................    5536.03364876543
   (I)  Total two-electron terms.....   22694.10720408420
   (J)    Coulomb....................   23345.36573667874
   (K)    Exchange+Correlation.......    -651.25853259454
   (L)  Electronic energy............  -26319.27299266591  (E+I)
   (N)  Total quantum mech. energy...   -5575.59114279213  (A+L)
   (O)  Gas phase energy.............   -5575.55045092455
   (P)  Solution phase energy........   -5575.57020294600  (Q+R+S)
   (Q)    Total solute energy........   -5575.54926309987  (N-C-G)
   (R)    Total solvent energy.......      -0.02093984613  (C/2+G/2)
   (S)    Solute cavity energy.......       0.00000000000
   (U)  Reorganization energy........       0.00118782468  (Q-O)
   (V)  Solvation energy.............      -0.01975202145  (P-O)
  
 SCFE:  Solution phase energy: DFT(m06-2x)      -5575.57020294600 hartrees
        SCF iterations:   5
  
 
 HOMO energy:    -0.25332
 LUMO energy:    -0.07737
 
  Orbital energies (hartrees): 
   -90.19308   -90.15780   -78.20305   -67.00820   -67.00540   -25.29325
   -25.29131   -25.29015   -19.68649   -19.68291   -19.67390   -19.67035
   -19.64017   -19.62584   -19.59351   -14.83890   -14.81498   -14.80244
   -14.73917   -10.80659   -10.67786   -10.64804   -10.62272   -10.62086
   -10.61542   -10.60048   -10.59957   -10.59450   -10.59011   -10.59003
   -10.58910   -10.57777   -10.57124   -10.56992   -10.56983   -10.56943
   -10.56779   -10.56763   -10.56688   -10.56412   -10.56261   -10.56180
   -10.56038   -10.55951   -10.55633   -10.55313   -10.55304   -10.55288
   -10.55272   -10.55242   -10.55204   -10.55190   -10.55166   -10.55164
   -10.55157   -10.55139   -10.55128   -10.55086   -10.55064   -10.55059
   -10.54961   -10.54924   -10.54921   -10.54856   -10.54770   -10.54731
   -10.54721   -10.54633   -10.54556   -10.54518   -10.54515   -10.54413
   -10.54410   -10.54386   -10.54363   -10.54327   -10.54249   -10.54229
   -10.54126   -10.54063   -10.54040   -10.53990   -10.53912   -10.53860
   -10.53736   -10.53719   -10.53419   -10.53416   -10.53070   -10.52893
   -10.52643   -10.52601    -8.50394    -8.46590    -6.98232    -6.42622
    -6.42500    -6.42427    -6.38812    -6.38729    -6.38727    -5.53992
    -5.53630    -5.10065    -5.09961    -5.09843    -3.84973    -3.84947
    -3.84906    -3.84611    -3.84577    -3.84561    -1.45787    -1.36747
    -1.36578    -1.26566    -1.22418    -1.21677    -1.17901    -1.15158
    -1.10589    -1.09938    -1.09638    -1.08484    -1.07581    -0.99353
    -0.98141    -0.97841    -0.96698    -0.94693    -0.94340    -0.94162
    -0.93919    -0.93589    -0.93572    -0.93348    -0.92175    -0.91258
    -0.91017    -0.88980    -0.88793    -0.88340    -0.85798    -0.85308
    -0.84480    -0.84127    -0.83778    -0.83697    -0.83570    -0.83337
    -0.83320    -0.83072    -0.82901    -0.82804    -0.82747    -0.82646
    -0.82526    -0.82493    -0.82413    -0.82242    -0.81786    -0.81616
    -0.79994    -0.76913    -0.76179    -0.74970    -0.73101    -0.72527
    -0.70875    -0.70224    -0.70134    -0.69836    -0.69685    -0.68965
    -0.68435    -0.68252    -0.68112    -0.67886    -0.67787    -0.67749
    -0.67687    -0.67535    -0.67035    -0.67019    -0.66609    -0.66480
    -0.66325    -0.66209    -0.66084    -0.65842    -0.65747    -0.65500
    -0.64843    -0.64063    -0.63327    -0.62304    -0.62014    -0.61818
    -0.60822    -0.60189    -0.59880    -0.59227    -0.58974    -0.58311
    -0.58105    -0.57963    -0.57898    -0.57638    -0.57452    -0.57241
    -0.57120    -0.56514    -0.56319    -0.55969    -0.55943    -0.55182
    -0.54979    -0.54652    -0.54471    -0.54044    -0.53806    -0.53102
    -0.52931    -0.52650    -0.52447    -0.52164    -0.51979    -0.51840
    -0.51830    -0.51730    -0.51397    -0.51355    -0.51103    -0.50979
    -0.50848    -0.50803    -0.50674    -0.50542    -0.50274    -0.50268
    -0.50205    -0.50006    -0.49915    -0.49819    -0.49709    -0.49634
    -0.49541    -0.49465    -0.49348    -0.49297    -0.49133    -0.48716
    -0.48496    -0.48323    -0.48257    -0.48016    -0.47904    -0.47728
    -0.47546    -0.47457    -0.47359    -0.47049    -0.46937    -0.46372
    -0.45765    -0.45390    -0.45204    -0.45103    -0.45041    -0.44882
    -0.44595    -0.44140    -0.44036    -0.43750    -0.43511    -0.43116
    -0.43013    -0.42726    -0.42503    -0.42424    -0.42155    -0.42083
    -0.41990    -0.41968    -0.41804    -0.41578    -0.41311    -0.41057
    -0.40589    -0.40290    -0.40067    -0.39994    -0.39680    -0.39484
    -0.39273    -0.39238    -0.38992    -0.38772    -0.38628    -0.38453
    -0.38360    -0.38129    -0.37802    -0.37716    -0.37295    -0.36802
    -0.36429    -0.36146    -0.35834    -0.35333    -0.35164    -0.34852
    -0.34548    -0.34194    -0.34090    -0.33872    -0.33614    -0.33149
    -0.32955    -0.32695    -0.32396    -0.32332    -0.31408    -0.30795
    -0.30366    -0.30153    -0.29973    -0.29845    -0.29715    -0.29546
    -0.29315    -0.29102    -0.29032    -0.28797    -0.28717    -0.28584
    -0.28352    -0.27339    -0.27181    -0.25332    -0.07737    -0.03348
    -0.01918    -0.01267    -0.00074     0.01329     0.01550     0.01749
     0.01921     0.02062
 
  Peak memory usage:   1029 Mb
  
  end of program scf
   
 Time(scf)  user:    11025.7  user+sys:    11025.7  wallclock:    34880.1
  
  start of program sole
  
    SCRF                   solvation energy
  iteration          Hartrees            kcal/mol
     0               0.0000000            0.0000
     1              -0.0197520          -12.3946
  
  solvation energy not yet converged... 
  
  Peak memory usage:    813 Mb
  
  end of program sole
   
 Time(sole)  user:        0.2  user+sys:        0.2  wallclock:        0.5
  
  start of program ch
  
  gridpoints used for charge fit        16384
    out of a possible maximum of        16384
  
   Electrostatic potential fitting constrained to reproduce
     total charge:                yes
     dipole moment:               no 
     traceless quadrupole moment: no 
     traceless octapole moment:   no 
  
  Atomic charges from electrostatic potential: 
   
 Atom       C1           C2           C3           C4           C5      
 Charge   -0.09224     -0.04602     -0.19914      0.22526      0.04713
   
 Atom       C6           C7           C8           C9           C10     
 Charge   -0.24642     -0.38306     -0.09978      0.00889     -0.11790
   
 Atom       C11          O12          Si13         C14          C15     
 Charge    0.17253     -0.33344     -0.24549      0.08567      0.17918
   
 Atom       C16          C17          C18          C19          C20     
 Charge    0.26626     -0.15228     -0.45720     -0.27480      0.06431
   
 Atom       Si21         O22          C23          C24          P25     
 Charge   -0.09802     -0.29272     -0.18371     -0.09669      1.02651
   
 Atom       O26          N27          C28          C29          C30     
 Charge   -0.62225     -0.67649      0.36462      0.14348      0.23218
   
 Atom       C31          C32          C33          C34          C35     
 Charge   -0.00903     -0.01178      0.21646     -0.26153     -0.27552
   
 Atom       C36          C37          C38          C39          C40     
 Charge   -0.12549     -0.20592     -0.20734     -0.26094     -0.02261
   
 Atom       C41          C42          C43          C44          C45     
 Charge    0.03719     -0.07830     -0.03029     -0.17015     -0.29771
   
 Atom       C46          C47          C48          C49          C50     
 Charge   -0.11326     -0.15314     -0.08709     -0.16079     -0.15485
   
 Atom       C51          C52          C53          C54          C55     
 Charge   -0.11320     -0.10429     -0.19991     -0.06726     -0.26243
   
 Atom       C56          C57          C58          C59          C60     
 Charge   -0.08536     -0.18628     -0.20097     -0.09256     -0.21232
   
 Atom       C61          C62          C63          C64          C65     
 Charge   -0.10838     -0.12132     -0.12287     -0.06908     -0.10147
   
 Atom       C66          C67          C68          C69          C70     
 Charge    0.10183     -0.15811     -0.10150     -0.15510     -0.00349
   
 Atom       N71          S72          O73          O74          C75     
 Charge   -0.29031      0.65562     -0.41005     -0.44850      0.57600
   
 Atom       C76          C77          C78          C79          N80     
 Charge   -0.43530      0.21628     -0.47089      0.45856     -0.65365
   
 Atom       N81          C82          C83          C84          C85     
 Charge    0.11210     -0.18229     -0.13928     -0.28538     -0.00651
   
 Atom       H86          H87          H88          H89          H90     
 Charge    0.11389      0.15776      0.15263      0.18470      0.13892
   
 Atom       H91          H92          H93          H94          H95     
 Charge    0.12596      0.22559      0.16082      0.15317      0.13549
   
 Atom       H96          H97          H98          H99          H100    
 Charge    0.10090      0.15033      0.08804      0.13925      0.15401
   
 Atom       H101         H102         H103         H104         H105    
 Charge    0.13442      0.10820      0.06160      0.12156      0.05711
   
 Atom       H106         H107         H108         H109         H110    
 Charge    0.12828      0.17443      0.10815      0.11730      0.13035
   
 Atom       H111         H112         H113         H114         H115    
 Charge    0.14546      0.14223      0.13449      0.13408      0.14769
   
 Atom       H116         H117         H118         H119         H120    
 Charge    0.11818      0.16601      0.13411      0.11918      0.14424
   
 Atom       H121         H122         H123         H124         H125    
 Charge    0.13037      0.15338      0.06976      0.11944      0.13665
   
 Atom       H126         H127         H128         H129         H130    
 Charge    0.11925      0.13049      0.12878      0.14553      0.15544
   
 Atom       H131         H132         H133         H134         H135    
 Charge    0.20246      0.20215      0.11534      0.19727      0.07593
   
 Atom       H136         H137         H138         H139         H140    
 Charge    0.25145      0.21534      0.16184      0.18783      0.11298
   
 Atom       S141         O142         C143         O144         F145    
 Charge    0.91638     -0.52624      0.42201     -0.47414     -0.13723
   
 Atom       F146         F147         H148    
 Charge   -0.17269     -0.10644      0.19956
  
  sum of atomic charges:     0.000000
   
 RMS Error   1.05E-03 hartrees
 
  Peak memory usage:    816 Mb
  
  end of program ch
   
 Time(ch)  user:       18.9  user+sys:       18.9  wallclock:       55.1
  
  start of program post
  
  Writing input files for PBF
  Peak memory usage:    759 Mb
  
  end of program post
   
 Time(post)  user:        0.8  user+sys:        0.8  wallclock:        3.4

  start of program pbf

Pbf Version 4.10

Molecular surface area:      832.78779   [A2]
Reaction field energy:       -21.77892   [kT]
  Peak memory usage: 721 Mb

  end of program pbf

 Time(pbf)  user:        8.3  user+sys:        8.6  wallclock:       23.8
  
  start of program solv
  
   number of surface charges from PBF   13206
   sum of surface charges     -0.00026
   
  nuclear repulsion energy.......   20741.008652253 hartrees
  Peak memory usage:    894 Mb
  
  end of program solv
   
 Time(solv)  user:       37.2  user+sys:       37.2  wallclock:      114.3
  
  start of program scf
  
 Energy computed with NOPS off.
  
       i  u  d  i  g                   
       t  p  i  c  r                                 RMS    maximum
       e  d  i  u  i                       energy  density   DIIS  
       r  t  s  t  d       total energy    change  change    error 
  
etot    1  N  N  1  U   -5575.59402390316           6.4E-06  1.6E-04
etot    2  N  N  1  U   -5575.59402492405  1.0E-06  0.0E+00  0.0E+00
  
  
 Energy components, in hartrees:
   (A)  Total zero-electron terms....   20743.94416053487
   (B)    Nuclear-nuclear............   20741.00865225311
   (C)    Nuclear-solvent............       2.93550828175
   (E)  Total one-electron terms.....  -49013.95684509681
   (F)    Electron-nuclear...........  -54547.01695562775
   (G)    Electron-solvent...........      -2.98061556437
   (H)    Kinetic....................    5536.04072609531
   (I)  Total two-electron terms.....   22694.41865963790
   (J)    Coulomb....................   23345.67881437279
   (K)    Exchange+Correlation.......    -651.26015473489
   (L)  Electronic energy............  -26319.53818545891  (E+I)
   (N)  Total quantum mech. energy...   -5575.59402492405  (A+L)
   (O)  Gas phase energy.............   -5575.55045092455
   (P)  Solution phase energy........   -5575.57147128274  (Q+R+S)
   (Q)    Total solute energy........   -5575.54891764143  (N-C-G)
   (R)    Total solvent energy.......      -0.02255364131  (C/2+G/2)
   (S)    Solute cavity energy.......       0.00000000000
   (U)  Reorganization energy........       0.00153328312  (Q-O)
   (V)  Solvation energy.............      -0.02102035819  (P-O)
  
 SCFE:  Solution phase energy: DFT(m06-2x)      -5575.57147128274 hartrees
        SCF iterations:   2
  
 
 HOMO energy:    -0.27293
 LUMO energy:    -0.07704
 
  Orbital energies (hartrees): 
   -64.76501   -59.98051   -59.21403   -50.44209   -40.61926   -33.67246
   -28.65624   -24.04192   -22.41769   -22.33947   -21.75235   -20.00112
   -19.82647   -19.27574   -18.73945   -18.19570   -18.15994   -17.60636
   -17.13715   -16.42208   -16.20103   -15.41268   -15.33662   -14.44300
   -14.35821   -14.13091   -13.92105   -13.80630   -13.52334   -12.95225
   -12.61333   -12.60116   -12.31185   -11.98390   -11.96891   -11.74226
   -11.72759   -11.52868   -11.50671   -11.24992   -11.03196   -10.97798
   -10.83930   -10.81324   -10.80649   -10.80263   -10.76858   -10.75143
   -10.74661   -10.74529   -10.74255   -10.73596   -10.70198   -10.69971
   -10.69114   -10.64061   -10.63904   -10.62541   -10.59840   -10.59447
   -10.57076   -10.52278   -10.51579   -10.51094   -10.49739   -10.44560
   -10.44278   -10.43978   -10.40908   -10.40854   -10.40405   -10.38280
   -10.37262   -10.36590   -10.34755   -10.31583   -10.31525   -10.31268
   -10.31109   -10.24505   -10.24214   -10.19162   -10.15310   -10.11557
   -10.11421   -10.11220   -10.09298   -10.08115   -10.06788    -9.83825
    -9.79888    -9.55703    -9.44929    -9.24805    -8.97953    -8.80624
    -8.65454    -8.64671    -8.57533    -8.35652    -7.75705    -7.72139
    -7.70013    -7.35757    -7.14878    -6.75513    -6.49383    -6.48767
    -6.08674    -4.40850    -4.26569    -3.89774    -1.43827    -1.37464
    -1.36879    -1.31718    -1.19312    -1.16645    -1.10613    -1.10474
    -1.03359    -1.01314    -0.99194    -0.97217    -0.92582    -0.91717
    -0.91194    -0.90669    -0.89609    -0.88652    -0.87907    -0.87732
    -0.86908    -0.85775    -0.85455    -0.85318    -0.84999    -0.83610
    -0.80970    -0.80229    -0.80127    -0.79563    -0.79459    -0.79423
    -0.79421    -0.79232    -0.79194    -0.79059    -0.78713    -0.78471
    -0.78397    -0.78334    -0.77900    -0.77776    -0.77665    -0.77558
    -0.76538    -0.76364    -0.76287    -0.76248    -0.76013    -0.75787
    -0.75415    -0.75080    -0.74901    -0.74834    -0.74044    -0.73386
    -0.72960    -0.72875    -0.71770    -0.71351    -0.70982    -0.69724
    -0.69167    -0.68637    -0.68374    -0.67750    -0.67289    -0.66776
    -0.66134    -0.65773    -0.65563    -0.65175    -0.64739    -0.64680
    -0.64663    -0.64016    -0.63985    -0.63929    -0.63924    -0.63897
    -0.63494    -0.63330    -0.62604    -0.62453    -0.62330    -0.61990
    -0.61585    -0.60966    -0.60944    -0.60795    -0.60389    -0.60359
    -0.60308    -0.60302    -0.59844    -0.59705    -0.59698    -0.59600
    -0.58904    -0.58336    -0.58094    -0.58070    -0.57489    -0.57046
    -0.57023    -0.56946    -0.56860    -0.56333    -0.56190    -0.55879
    -0.55671    -0.55573    -0.55472    -0.55461    -0.54545    -0.54453
    -0.54312    -0.54297    -0.54251    -0.54211    -0.53681    -0.53661
    -0.53471    -0.53258    -0.52865    -0.52785    -0.52596    -0.52355
    -0.52053    -0.51762    -0.51730    -0.51709    -0.51116    -0.50920
    -0.50823    -0.50619    -0.50563    -0.50542    -0.50493    -0.50174
    -0.50101    -0.50094    -0.49974    -0.49918    -0.49701    -0.49650
    -0.49439    -0.49212    -0.48832    -0.48779    -0.48670    -0.48574
    -0.47827    -0.47825    -0.47722    -0.47659    -0.47549    -0.47447
    -0.47293    -0.47203    -0.47060    -0.46941    -0.46815    -0.46673
    -0.46536    -0.46522    -0.46323    -0.46194    -0.46003    -0.45950
    -0.45924    -0.45901    -0.45845    -0.45829    -0.45504    -0.45188
    -0.44772    -0.44588    -0.44442    -0.44148    -0.43951    -0.43865
    -0.43824    -0.43795    -0.43493    -0.43410    -0.43218    -0.43112
    -0.42918    -0.42907    -0.42730    -0.42715    -0.42666    -0.42389
    -0.42171    -0.42111    -0.42050    -0.41166    -0.40869    -0.40757
    -0.40489    -0.40473    -0.39663    -0.39617    -0.39153    -0.38802
    -0.38582    -0.38112    -0.38097    -0.38062    -0.38060    -0.38018
    -0.37993    -0.36173    -0.35657    -0.34436    -0.33381    -0.33047
    -0.31851    -0.31114    -0.31006    -0.30736    -0.30655    -0.30553
    -0.30039    -0.29864    -0.28201    -0.27293    -0.07704    -0.03324
    -0.01913    -0.01249    -0.00077     0.01331     0.01566     0.01751
     0.01938     0.02068
 
  Peak memory usage:   1029 Mb
  
  end of program scf
   
 Time(scf)  user:     2740.1  user+sys:     2740.1  wallclock:     8803.2
  
  start of program sole
  
    SCRF                   solvation energy
  iteration          Hartrees            kcal/mol
     0               0.0000000            0.0000
     1              -0.0197520          -12.3946
     2              -0.0210204          -13.1905
  
  solvation energy not yet converged... 
  
  Peak memory usage:    813 Mb
  
  end of program sole
   
 Time(sole)  user:        0.2  user+sys:        0.2  wallclock:        0.8
  
  start of program ch
  
  gridpoints used for charge fit        16384
    out of a possible maximum of        16384
  
   Electrostatic potential fitting constrained to reproduce
     total charge:                yes
     dipole moment:               no 
     traceless quadrupole moment: no 
     traceless octapole moment:   no 
  
  Atomic charges from electrostatic potential: 
   
 Atom       C1           C2           C3           C4           C5      
 Charge   -0.09310     -0.04680     -0.19885      0.22540      0.04695
   
 Atom       C6           C7           C8           C9           C10     
 Charge   -0.24682     -0.38331     -0.09960      0.00705     -0.11773
   
 Atom       C11          O12          Si13         C14          C15     
 Charge    0.17322     -0.33258     -0.24578      0.08681      0.17600
   
 Atom       C16          C17          C18          C19          C20     
 Charge    0.26594     -0.15330     -0.45800     -0.27526      0.06654
   
 Atom       Si21         O22          C23          C24          P25     
 Charge   -0.10131     -0.29137     -0.18308     -0.09606      1.02514
   
 Atom       O26          N27          C28          C29          C30     
 Charge   -0.62225     -0.67570      0.36327      0.14237      0.23241
   
 Atom       C31          C32          C33          C34          C35     
 Charge   -0.00916     -0.01318      0.21639     -0.25909     -0.27548
   
 Atom       C36          C37          C38          C39          C40     
 Charge   -0.12522     -0.20566     -0.20885     -0.26137     -0.02315
   
 Atom       C41          C42          C43          C44          C45     
 Charge    0.03693     -0.07813     -0.03101     -0.17099     -0.29991
   
 Atom       C46          C47          C48          C49          C50     
 Charge   -0.11476     -0.15272     -0.08744     -0.16160     -0.15437
   
 Atom       C51          C52          C53          C54          C55     
 Charge   -0.11352     -0.10525     -0.19936     -0.06700     -0.26260
   
 Atom       C56          C57          C58          C59          C60     
 Charge   -0.08569     -0.18596     -0.20094     -0.09203     -0.21235
   
 Atom       C61          C62          C63          C64          C65     
 Charge   -0.10913     -0.12127     -0.12161     -0.07101     -0.10291
   
 Atom       C66          C67          C68          C69          C70     
 Charge    0.10122     -0.15695     -0.10037     -0.15499     -0.00500
   
 Atom       N71          S72          O73          O74          C75     
 Charge   -0.29230      0.65535     -0.41337     -0.44689      0.57473
   
 Atom       C76          C77          C78          C79          N80     
 Charge   -0.43491      0.21947     -0.46951      0.45891     -0.65846
   
 Atom       N81          C82          C83          C84          C85     
 Charge    0.11368     -0.18354     -0.13829     -0.28398     -0.00751
   
 Atom       H86          H87          H88          H89          H90     
 Charge    0.11397      0.15829      0.15310      0.18487      0.13959
   
 Atom       H91          H92          H93          H94          H95     
 Charge    0.12662      0.22605      0.16106      0.15359      0.13603
   
 Atom       H96          H97          H98          H99          H100    
 Charge    0.09985      0.14990      0.08772      0.13920      0.15397
   
 Atom       H101         H102         H103         H104         H105    
 Charge    0.13470      0.10804      0.06154      0.12171      0.05682
   
 Atom       H106         H107         H108         H109         H110    
 Charge    0.12907      0.17488      0.10882      0.11750      0.13087
   
 Atom       H111         H112         H113         H114         H115    
 Charge    0.14599      0.14270      0.13507      0.13420      0.14832
   
 Atom       H116         H117         H118         H119         H120    
 Charge    0.11914      0.16622      0.13461      0.11970      0.14485
   
 Atom       H121         H122         H123         H124         H125    
 Charge    0.13094      0.15396      0.07081      0.12025      0.13697
   
 Atom       H126         H127         H128         H129         H130    
 Charge    0.11945      0.12985      0.12979      0.14627      0.15593
   
 Atom       H131         H132         H133         H134         H135    
 Charge    0.20370      0.20242      0.11586      0.19807      0.07636
   
 Atom       H136         H137         H138         H139         H140    
 Charge    0.25085      0.21585      0.16229      0.18857      0.11350
   
 Atom       S141         O142         C143         O144         F145    
 Charge    0.91545     -0.52495      0.42213     -0.47467     -0.13711
   
 Atom       F146         F147         H148    
 Charge   -0.17283     -0.10576      0.19935
  
  sum of atomic charges:    -0.000000
   
 RMS Error   1.05E-03 hartrees
 
  Peak memory usage:    816 Mb
  
  end of program ch
   
 Time(ch)  user:       18.9  user+sys:       18.9  wallclock:       58.9
  
  start of program post
  
  Writing input files for PBF
  Peak memory usage:    759 Mb
  
  end of program post
   
 Time(post)  user:        0.9  user+sys:        0.9  wallclock:        3.2

  start of program pbf

Pbf Version 4.10

Molecular surface area:      832.78779   [A2]
Reaction field energy:       -22.14912   [kT]
  Peak memory usage: 721 Mb

  end of program pbf

 Time(pbf)  user:        8.5  user+sys:        8.6  wallclock:       23.8
  
  start of program solv
  
   number of surface charges from PBF   13206
   sum of surface charges     -0.00027
   
  nuclear repulsion energy.......   20741.008652253 hartrees
  Peak memory usage:    894 Mb
  
  end of program solv
   
 Time(solv)  user:       37.3  user+sys:       37.3  wallclock:      111.2
  
  start of program scf
  
 Energy computed with NOPS off.
  
       i  u  d  i  g                   
       t  p  i  c  r                                 RMS    maximum
       e  d  i  u  i                       energy  density   DIIS  
       r  t  s  t  d       total energy    change  change    error 
  
etot    1  N  N  1  U   -5575.59438744940           5.5E-06  1.7E-04
etot    2  N  N  1  U   -5575.59437163542 -1.6E-05  0.0E+00  0.0E+00
  
  
 Energy components, in hartrees:
   (A)  Total zero-electron terms....   20743.99492976936
   (B)    Nuclear-nuclear............   20741.00865225311
   (C)    Nuclear-solvent............       2.98627751624
   (E)  Total one-electron terms.....  -49013.71552157226
   (F)    Electron-nuclear...........  -54546.71104182441
   (G)    Electron-solvent...........      -3.03158500849
   (H)    Kinetic....................    5536.02710526064
   (I)  Total two-electron terms.....   22694.12622016748
   (J)    Coulomb....................   23345.38511521290
   (K)    Exchange+Correlation.......    -651.25889504542
   (L)  Electronic energy............  -26319.58930140478  (E+I)
   (N)  Total quantum mech. energy...   -5575.59437163542  (A+L)
   (O)  Gas phase energy.............   -5575.55045092455
   (P)  Solution phase energy........   -5575.57171788930  (Q+R+S)
   (Q)    Total solute energy........   -5575.54906414318  (N-C-G)
   (R)    Total solvent energy.......      -0.02265374612  (C/2+G/2)
   (S)    Solute cavity energy.......       0.00000000000
   (U)  Reorganization energy........       0.00138678137  (Q-O)
   (V)  Solvation energy.............      -0.02126696475  (P-O)
  
 SCFE:  Solution phase energy: DFT(m06-2x)      -5575.57171788930 hartrees
        SCF iterations:   2
  
 
 HOMO energy:    -0.25380
 LUMO energy:    -0.07766
 
  Orbital energies (hartrees): 
   -90.19464   -90.15860   -78.20389   -67.00869   -67.00674   -25.29377
   -25.29187   -25.29016   -19.68718   -19.68407   -19.67376   -19.67217
   -19.64042   -19.62737   -19.59360   -14.84150   -14.81542   -14.80547
   -14.74023   -10.80708   -10.67871   -10.64970   -10.62362   -10.62211
   -10.61576   -10.59964   -10.59811   -10.59411   -10.58964   -10.58957
   -10.58876   -10.57667   -10.57093   -10.57091   -10.57062   -10.57015
   -10.56845   -10.56775   -10.56659   -10.56351   -10.56267   -10.56217
   -10.56063   -10.55978   -10.55708   -10.55348   -10.55314   -10.55254
   -10.55233   -10.55212   -10.55181   -10.55166   -10.55164   -10.55136
   -10.55130   -10.55126   -10.55122   -10.55077   -10.55068   -10.55065
   -10.54990   -10.54922   -10.54916   -10.54854   -10.54801   -10.54720
   -10.54708   -10.54647   -10.54570   -10.54562   -10.54560   -10.54523
   -10.54505   -10.54442   -10.54388   -10.54336   -10.54312   -10.54193
   -10.54181   -10.54161   -10.54097   -10.54045   -10.53950   -10.53943
   -10.53858   -10.53813   -10.53472   -10.53463   -10.53226   -10.52962
   -10.52808   -10.52756    -8.50547    -8.46670    -6.98315    -6.42774
    -6.42654    -6.42580    -6.38892    -6.38809    -6.38807    -5.54041
    -5.53763    -5.10148    -5.10044    -5.09925    -3.85021    -3.84996
    -3.84954    -3.84745    -3.84710    -3.84694    -1.45831    -1.36801
    -1.36610    -1.26690    -1.22504    -1.21764    -1.17991    -1.15276
    -1.10670    -1.09946    -1.09764    -1.08615    -1.07633    -0.99436
    -0.98194    -0.97854    -0.96738    -0.94700    -0.94340    -0.94225
    -0.93938    -0.93628    -0.93561    -0.93423    -0.92208    -0.91315
    -0.91054    -0.89033    -0.88775    -0.88320    -0.85804    -0.85338
    -0.84497    -0.84188    -0.83776    -0.83705    -0.83613    -0.83391
    -0.83333    -0.83074    -0.82967    -0.82830    -0.82787    -0.82698
    -0.82572    -0.82533    -0.82437    -0.82305    -0.81867    -0.81654
    -0.80038    -0.76964    -0.76240    -0.74983    -0.73162    -0.72586
    -0.70930    -0.70261    -0.70151    -0.69879    -0.69724    -0.69017
    -0.68479    -0.68289    -0.68122    -0.67891    -0.67803    -0.67756
    -0.67744    -0.67539    -0.67064    -0.67054    -0.66670    -0.66549
    -0.66333    -0.66220    -0.66131    -0.65830    -0.65768    -0.65574
    -0.64887    -0.64077    -0.63376    -0.62351    -0.62036    -0.61871
    -0.60851    -0.60244    -0.59922    -0.59283    -0.59046    -0.58308
    -0.58101    -0.57979    -0.57926    -0.57674    -0.57503    -0.57295
    -0.57166    -0.56586    -0.56376    -0.56009    -0.55980    -0.55214
    -0.55023    -0.54705    -0.54482    -0.54094    -0.53847    -0.53156
    -0.52991    -0.52685    -0.52493    -0.52194    -0.51978    -0.51859
    -0.51857    -0.51743    -0.51434    -0.51391    -0.51155    -0.51017
    -0.50880    -0.50786    -0.50700    -0.50586    -0.50299    -0.50282
    -0.50221    -0.50010    -0.49976    -0.49817    -0.49739    -0.49656
    -0.49567    -0.49485    -0.49387    -0.49354    -0.49183    -0.48768
    -0.48491    -0.48333    -0.48284    -0.48071    -0.47926    -0.47755
    -0.47594    -0.47530    -0.47337    -0.47021    -0.46967    -0.46418
    -0.45724    -0.45425    -0.45223    -0.45116    -0.45056    -0.44920
    -0.44640    -0.44247    -0.44091    -0.43772    -0.43558    -0.43160
    -0.43057    -0.42744    -0.42532    -0.42474    -0.42172    -0.42134
    -0.42049    -0.42015    -0.41854    -0.41612    -0.41425    -0.41107
    -0.40640    -0.40369    -0.40112    -0.40044    -0.39729    -0.39488
    -0.39278    -0.39264    -0.39047    -0.38799    -0.38663    -0.38529
    -0.38416    -0.38189    -0.37853    -0.37763    -0.37307    -0.36862
    -0.36518    -0.36205    -0.35963    -0.35400    -0.35213    -0.34871
    -0.34590    -0.34225    -0.34124    -0.33961    -0.33708    -0.33209
    -0.32971    -0.32761    -0.32440    -0.32361    -0.31391    -0.30806
    -0.30381    -0.30151    -0.30036    -0.29909    -0.29743    -0.29567
    -0.29378    -0.29123    -0.29100    -0.28884    -0.28781    -0.28659
    -0.28398    -0.27378    -0.27183    -0.25380    -0.07766    -0.03392
    -0.01967    -0.01268    -0.00112     0.01280     0.01503     0.01732
     0.01889     0.02012
 
  Peak memory usage:   1029 Mb
  
  end of program scf
   
 Time(scf)  user:     2729.0  user+sys:     2729.0  wallclock:     7650.1
  
  start of program sole
  
    SCRF                   solvation energy
  iteration          Hartrees            kcal/mol
     0               0.0000000            0.0000
     1              -0.0197520          -12.3946
     2              -0.0210204          -13.1905
     3              -0.0212670          -13.3452
  
  solvation energy not yet converged... 
  
  Peak memory usage:    813 Mb
  
  end of program sole
   
[...]
       t  p  i  c  r                                 RMS    maximum
       e  d  i  u  i                       energy  density   DIIS  
       r  t  s  t  d       total energy    change  change    error 
  
etot    1  N  N  1  U   -5575.59441538007           1.3E-05  4.5E-04
etot    2  N  Y  1  U   -5575.59429327194 -1.2E-04  8.8E-06  7.8E-04
etot    3  N  Y  1  U   -5575.59447699776  1.8E-04  3.2E-07  2.0E-05
etot    4  N  N  1  U   -5575.59447721587  2.2E-07  0.0E+00  0.0E+00
  
  
 Energy components, in hartrees:
   (A)  Total zero-electron terms....   20744.01267610333
   (B)    Nuclear-nuclear............   20741.00865225311
   (C)    Nuclear-solvent............       3.00402385021
   (E)  Total one-electron terms.....  -49013.92468902896
   (F)    Electron-nuclear...........  -54546.90774095211
   (G)    Electron-solvent...........      -3.04954273750
   (H)    Kinetic....................    5536.03259466065
   (I)  Total two-electron terms.....   22694.31753570976
   (J)    Coulomb....................   23345.57697242226
   (K)    Exchange+Correlation.......    -651.25943671249
   (L)  Electronic energy............  -26319.60715331919  (E+I)
   (N)  Total quantum mech. energy...   -5575.59447721587  (A+L)
   (O)  Gas phase energy.............   -5575.55045092455
   (P)  Solution phase energy........   -5575.57171777222  (Q+R+S)
   (Q)    Total solute energy........   -5575.54895832858  (N-C-G)
   (R)    Total solvent energy.......      -0.02275944364  (C/2+G/2)
   (S)    Solute cavity energy.......       0.00000000000
   (U)  Reorganization energy........       0.00149259597  (Q-O)
   (V)  Solvation energy.............      -0.02126684768  (P-O)
  
 SCFE:  Solution phase energy: DFT(m06-2x)      -5575.57171777222 hartrees
        SCF iterations:   4
  
 
 HOMO energy:    -0.25351
 LUMO energy:    -0.07733
 
  Orbital energies (hartrees): 
   -90.19360   -90.15809   -78.20330   -67.00823   -67.00556   -25.29347
   -25.29161   -25.29034   -19.68673   -19.68312   -19.67566   -19.67127
   -19.64072   -19.62604   -19.59402   -14.83880   -14.81502   -14.80245
   -14.73937   -10.80683   -10.67767   -10.64827   -10.62291   -10.62094
   -10.61523   -10.60059   -10.59940   -10.59457   -10.59007   -10.58977
   -10.58898   -10.57741   -10.57098   -10.57026   -10.57014   -10.56946
   -10.56781   -10.56738   -10.56707   -10.56376   -10.56256   -10.56215
   -10.56073   -10.55968   -10.55652   -10.55336   -10.55319   -10.55286
   -10.55278   -10.55220   -10.55209   -10.55181   -10.55179   -10.55178
   -10.55173   -10.55143   -10.55108   -10.55096   -10.55064   -10.55063
   -10.54972   -10.54956   -10.54925   -10.54866   -10.54766   -10.54761
   -10.54746   -10.54658   -10.54589   -10.54563   -10.54533   -10.54458
   -10.54441   -10.54419   -10.54370   -10.54342   -10.54287   -10.54261
   -10.54166   -10.54116   -10.54095   -10.54033   -10.53933   -10.53879
   -10.53800   -10.53720   -10.53432   -10.53424   -10.53102   -10.52907
   -10.52665   -10.52630    -8.50450    -8.46619    -6.98258    -6.42676
    -6.42556    -6.42482    -6.38841    -6.38758    -6.38756    -5.53997
    -5.53647    -5.10090    -5.09987    -5.09869    -3.84977    -3.84951
    -3.84910    -3.84628    -3.84594    -3.84578    -1.45811    -1.36774
    -1.36599    -1.26656    -1.22445    -1.21703    -1.17923    -1.15264
    -1.10618    -1.09944    -1.09649    -1.08496    -1.07617    -0.99380
    -0.98164    -0.97825    -0.96721    -0.94697    -0.94340    -0.94201
    -0.93940    -0.93609    -0.93578    -0.93389    -0.92194    -0.91269
    -0.91033    -0.89000    -0.88778    -0.88324    -0.85779    -0.85326
    -0.84489    -0.84152    -0.83775    -0.83704    -0.83589    -0.83374
    -0.83333    -0.83078    -0.82934    -0.82819    -0.82768    -0.82673
    -0.82549    -0.82511    -0.82431    -0.82271    -0.81823    -0.81626
    -0.80012    -0.76918    -0.76197    -0.74964    -0.73115    -0.72544
    -0.70895    -0.70239    -0.70123    -0.69851    -0.69675    -0.68987
    -0.68458    -0.68274    -0.68117    -0.67891    -0.67794    -0.67753
    -0.67714    -0.67534    -0.67053    -0.67040    -0.66642    -0.66516
    -0.66328    -0.66219    -0.66093    -0.65842    -0.65755    -0.65537
    -0.64862    -0.64074    -0.63347    -0.62320    -0.62015    -0.61841
    -0.60834    -0.60211    -0.59897    -0.59246    -0.59007    -0.58309
    -0.58104    -0.57972    -0.57916    -0.57658    -0.57479    -0.57264
    -0.57143    -0.56560    -0.56358    -0.55988    -0.55961    -0.55179
    -0.54993    -0.54671    -0.54475    -0.54062    -0.53824    -0.53122
    -0.52955    -0.52666    -0.52468    -0.52174    -0.51973    -0.51842
    -0.51833    -0.51740    -0.51414    -0.51376    -0.51127    -0.50994
    -0.50864    -0.50791    -0.50683    -0.50550    -0.50286    -0.50273
    -0.50216    -0.49997    -0.49948    -0.49806    -0.49720    -0.49639
    -0.49557    -0.49479    -0.49368    -0.49326    -0.49157    -0.48742
    -0.48491    -0.48329    -0.48271    -0.48051    -0.47922    -0.47745
    -0.47573    -0.47496    -0.47351    -0.47043    -0.46952    -0.46392
    -0.45755    -0.45409    -0.45218    -0.45106    -0.45046    -0.44901
    -0.44618    -0.44208    -0.44066    -0.43772    -0.43532    -0.43136
    -0.43030    -0.42734    -0.42513    -0.42456    -0.42166    -0.42111
    -0.42051    -0.41991    -0.41832    -0.41600    -0.41353    -0.41071
    -0.40611    -0.40351    -0.40097    -0.40017    -0.39703    -0.39482
    -0.39277    -0.39247    -0.39025    -0.38795    -0.38650    -0.38493
    -0.38388    -0.38158    -0.37823    -0.37735    -0.37293    -0.36829
    -0.36458    -0.36176    -0.35863    -0.35358    -0.35181    -0.34856
    -0.34564    -0.34204    -0.34104    -0.33899    -0.33644    -0.33171
    -0.32951    -0.32722    -0.32411    -0.32334    -0.31392    -0.30800
    -0.30379    -0.30150    -0.30011    -0.29882    -0.29736    -0.29563
    -0.29349    -0.29112    -0.29069    -0.28837    -0.28742    -0.28616
    -0.28375    -0.27359    -0.27182    -0.25351    -0.07733    -0.03357
    -0.01938    -0.01262    -0.00094     0.01308     0.01536     0.01743
     0.01915     0.02043
 
  Peak memory usage:   1029 Mb
  
  end of program scf
   
 Time(scf)  user:     7894.3  user+sys:     7894.3  wallclock:    13662.4
  
  start of program sole
  
    SCRF                   solvation energy
  iteration          Hartrees            kcal/mol
     0               0.0000000            0.0000
     1              -0.0197520          -12.3946
     2              -0.0210204          -13.1905
     3              -0.0212670          -13.3452
     4              -0.0210317          -13.1976
     5              -0.0212668          -13.3451
  
  solvation energy not yet converged... 
  
  Peak memory usage:    813 Mb
  
  end of program sole
   
 Time(sole)  user:        0.1  user+sys:        0.1  wallclock:        0.1
  
  start of program ch
  
  gridpoints used for charge fit        16384
    out of a possible maximum of        16384
  
   Electrostatic potential fitting constrained to reproduce
     total charge:                yes
     dipole moment:               no 
     traceless quadrupole moment: no 
     traceless octapole moment:   no 
  
  Atomic charges from electrostatic potential: 
   
 Atom       C1           C2           C3           C4           C5      
 Charge   -0.09261     -0.04667     -0.19938      0.22552      0.04709
   
 Atom       C6           C7           C8           C9           C10     
 Charge   -0.24697     -0.38388     -0.09987      0.00712     -0.11749
   
 Atom       C11          O12          Si13         C14          C15     
 Charge    0.17388     -0.33255     -0.24614      0.08642      0.17632
   
 Atom       C16          C17          C18          C19          C20     
 Charge    0.26596     -0.15291     -0.45833     -0.27517      0.06729
   
 Atom       Si21         O22          C23          C24          P25     
 Charge   -0.10112     -0.29136     -0.18365     -0.09658      1.02543
   
 Atom       O26          N27          C28          C29          C30     
 Charge   -0.62262     -0.67576      0.36414      0.14294      0.23298
   
 Atom       C31          C32          C33          C34          C35     
 Charge   -0.00838     -0.01264      0.21708     -0.25970     -0.27517
   
 Atom       C36          C37          C38          C39          C40     
 Charge   -0.12527     -0.20564     -0.20862     -0.26163     -0.02345
   
 Atom       C41          C42          C43          C44          C45     
 Charge    0.03737     -0.07806     -0.03039     -0.17128     -0.29957
   
 Atom       C46          C47          C48          C49          C50     
 Charge   -0.11470     -0.15292     -0.08785     -0.16166     -0.15472
   
 Atom       C51          C52          C53          C54          C55     
 Charge   -0.11373     -0.10473     -0.20008     -0.06724     -0.26276
   
 Atom       C56          C57          C58          C59          C60     
 Charge   -0.08600     -0.18638     -0.20134     -0.09241     -0.21291
   
 Atom       C61          C62          C63          C64          C65     
 Charge   -0.10845     -0.12208     -0.12216     -0.07084     -0.10198
   
 Atom       C66          C67          C68          C69          C70     
 Charge    0.10158     -0.15756     -0.10106     -0.15510     -0.00507
   
 Atom       N71          S72          O73          O74          C75     
 Charge   -0.29091      0.65610     -0.41355     -0.44837      0.57588
   
 Atom       C76          C77          C78          C79          N80     
 Charge   -0.43568      0.21863     -0.47044      0.45935     -0.65790
   
 Atom       N81          C82          C83          C84          C85     
 Charge    0.11450     -0.18359     -0.13894     -0.28469     -0.00803
   
 Atom       H86          H87          H88          H89          H90     
 Charge    0.11378      0.15843      0.15312      0.18491      0.13974
   
 Atom       H91          H92          H93          H94          H95     
 Charge    0.12640      0.22598      0.16107      0.15379      0.13625
   
 Atom       H96          H97          H98          H99          H100    
 Charge    0.09980      0.14980      0.08759      0.13911      0.15393
   
 Atom       H101         H102         H103         H104         H105    
 Charge    0.13462      0.10813      0.06127      0.12159      0.05649
   
 Atom       H106         H107         H108         H109         H110    
 Charge    0.12935      0.17473      0.10876      0.11758      0.13098
   
 Atom       H111         H112         H113         H114         H115    
 Charge    0.14605      0.14283      0.13518      0.13407      0.14853
   
 Atom       H116         H117         H118         H119         H120    
 Charge    0.11928      0.16616      0.13467      0.11973      0.14497
   
 Atom       H121         H122         H123         H124         H125    
 Charge    0.13110      0.15409      0.07018      0.12042      0.13710
   
 Atom       H126         H127         H128         H129         H130    
 Charge    0.11938      0.12965      0.12984      0.14655      0.15600
   
 Atom       H131         H132         H133         H134         H135    
 Charge    0.20364      0.20261      0.11621      0.19822      0.07626
   
 Atom       H136         H137         H138         H139         H140    
 Charge    0.25068      0.21581      0.16259      0.18900      0.11359
   
 Atom       S141         O142         C143         O144         F145    
 Charge    0.91578     -0.52489      0.42228     -0.47447     -0.13720
   
 Atom       F146         F147         H148    
 Charge   -0.17295     -0.10623      0.19917
  
  sum of atomic charges:    -0.000000
   
 RMS Error   1.05E-03 hartrees
 
  Peak memory usage:    816 Mb
  
  end of program ch
   
 Time(ch)  user:       17.8  user+sys:       17.8  wallclock:       19.7
  
  start of program post
  
  Writing input files for PBF
  Peak memory usage:    759 Mb
  
  end of program post
   
 Time(post)  user:        0.8  user+sys:        0.8  wallclock:        1.0

  start of program pbf

Pbf Version 4.10

Molecular surface area:      832.78779   [A2]
Reaction field energy:       -22.12473   [kT]
  Peak memory usage: 721 Mb

  end of program pbf

 Time(pbf)  user:        8.0  user+sys:        8.1  wallclock:        8.3
  
  start of program solv
  
   number of surface charges from PBF   13206
   sum of surface charges     -0.00027
   
  nuclear repulsion energy.......   20741.008652253 hartrees
  Peak memory usage:    894 Mb
  
  end of program solv
   
 Time(solv)  user:       35.4  user+sys:       35.4  wallclock:       36.1
  
  start of program scf
  
 Energy computed with NOPS off.
  
       i  u  d  i  g                   
       t  p  i  c  r                                 RMS    maximum
       e  d  i  u  i                       energy  density   DIIS  
       r  t  s  t  d       total energy    change  change    error 
  
etot    1  N  N  1  U   -5575.59437697399           9.9E-07  2.6E-05
etot    2  N  N  1  U   -5575.59437694154 -3.2E-08  0.0E+00  0.0E+00
  
  
 Energy components, in hartrees:
   (A)  Total zero-electron terms....   20743.98654013004
   (B)    Nuclear-nuclear............   20741.00865225311
   (C)    Nuclear-solvent............       2.97788787693
   (E)  Total one-electron terms.....  -49013.86772229789
   (F)    Electron-nuclear...........  -54546.87612835627
   (G)    Electron-solvent...........      -3.02326999590
   (H)    Kinetic....................    5536.03167605428
   (I)  Total two-electron terms.....   22694.28680522631
   (J)    Coulomb....................   23345.54607363287
   (K)    Exchange+Correlation.......    -651.25926840655
   (L)  Electronic energy............  -26319.58091707158  (E+I)
   (N)  Total quantum mech. energy...   -5575.59437694154  (A+L)
   (O)  Gas phase energy.............   -5575.55045092455
   (P)  Solution phase energy........   -5575.57168588205  (Q+R+S)
   (Q)    Total solute energy........   -5575.54899482257  (N-C-G)
   (R)    Total solvent energy.......      -0.02269105948  (C/2+G/2)
   (S)    Solute cavity energy.......       0.00000000000
   (U)  Reorganization energy........       0.00145610198  (Q-O)
   (V)  Solvation energy.............      -0.02123495750  (P-O)
  
 SCFE:  Solution phase energy: DFT(m06-2x)      -5575.57168588205 hartrees
        SCF iterations:   2
  
 
 HOMO energy:    -0.25354
 LUMO energy:    -0.07731
 
  Orbital energies (hartrees): 
   -90.19361   -90.15810   -78.20329   -67.00826   -67.00565   -25.29350
   -25.29161   -25.29025   -19.68668   -19.68315   -19.67524   -19.67169
   -19.64059   -19.62627   -19.59406   -14.83888   -14.81502   -14.80281
   -14.73935   -10.80682   -10.67765   -10.64837   -10.62294   -10.62098
   -10.61530   -10.60043   -10.59918   -10.59458   -10.58994   -10.58962
   -10.58897   -10.57729   -10.57102   -10.57033   -10.57017   -10.56962
   -10.56785   -10.56729   -10.56712   -10.56364   -10.56272   -10.56220
   -10.56076   -10.55973   -10.55660   -10.55339   -10.55320   -10.55285
   -10.55270   -10.55222   -10.55205   -10.55179   -10.55177   -10.55177
   -10.55164   -10.55138   -10.55102   -10.55091   -10.55072   -10.55065
   -10.54965   -10.54957   -10.54922   -10.54864   -10.54767   -10.54758
   -10.54742   -10.54650   -10.54583   -10.54564   -10.54539   -10.54462
   -10.54447   -10.54410   -10.54377   -10.54344   -10.54289   -10.54255
   -10.54168   -10.54118   -10.54095   -10.54030   -10.53939   -10.53882
   -10.53799   -10.53730   -10.53437   -10.53424   -10.53115   -10.52911
   -10.52674   -10.52638    -8.50451    -8.46620    -6.98257    -6.42677
    -6.42557    -6.42483    -6.38842    -6.38759    -6.38757    -5.54000
    -5.53656    -5.10090    -5.09986    -5.09868    -3.84980    -3.84954
    -3.84913    -3.84638    -3.84603    -3.84587    -1.45810    -1.36773
    -1.36596    -1.26655    -1.22447    -1.21705    -1.17924    -1.15263
    -1.10620    -1.09942    -1.09659    -1.08499    -1.07618    -0.99380
    -0.98167    -0.97826    -0.96724    -0.94697    -0.94339    -0.94202
    -0.93938    -0.93611    -0.93570    -0.93391    -0.92194    -0.91270
    -0.91034    -0.89004    -0.88776    -0.88322    -0.85781    -0.85328
    -0.84489    -0.84154    -0.83774    -0.83704    -0.83590    -0.83374
    -0.83332    -0.83076    -0.82936    -0.82819    -0.82769    -0.82674
    -0.82550    -0.82512    -0.82430    -0.82273    -0.81825    -0.81625
    -0.80014    -0.76918    -0.76198    -0.74963    -0.73116    -0.72545
    -0.70897    -0.70240    -0.70124    -0.69853    -0.69677    -0.68989
    -0.68457    -0.68271    -0.68116    -0.67890    -0.67793    -0.67753
    -0.67716    -0.67534    -0.67052    -0.67041    -0.66643    -0.66518
    -0.66328    -0.66217    -0.66093    -0.65841    -0.65755    -0.65539
    -0.64864    -0.64071    -0.63347    -0.62321    -0.62014    -0.61840
    -0.60834    -0.60213    -0.59898    -0.59246    -0.59008    -0.58307
    -0.58102    -0.57972    -0.57915    -0.57658    -0.57480    -0.57264
    -0.57144    -0.56560    -0.56356    -0.55988    -0.55961    -0.55180
    -0.54994    -0.54672    -0.54473    -0.54063    -0.53825    -0.53123
    -0.52956    -0.52667    -0.52467    -0.52173    -0.51973    -0.51842
    -0.51833    -0.51739    -0.51414    -0.51377    -0.51129    -0.50995
    -0.50864    -0.50789    -0.50683    -0.50551    -0.50284    -0.50272
    -0.50215    -0.49996    -0.49949    -0.49805    -0.49721    -0.49638
    -0.49558    -0.49479    -0.49369    -0.49328    -0.49159    -0.48744
    -0.48490    -0.48329    -0.48272    -0.48051    -0.47922    -0.47744
    -0.47574    -0.47498    -0.47348    -0.47038    -0.46953    -0.46394
    -0.45753    -0.45410    -0.45218    -0.45106    -0.45045    -0.44902
    -0.44620    -0.44210    -0.44067    -0.43769    -0.43532    -0.43138
    -0.43031    -0.42734    -0.42514    -0.42456    -0.42165    -0.42111
    -0.42048    -0.41992    -0.41832    -0.41600    -0.41358    -0.41073
    -0.40612    -0.40350    -0.40098    -0.40018    -0.39704    -0.39481
    -0.39276    -0.39246    -0.39026    -0.38795    -0.38650    -0.38494
    -0.38389    -0.38160    -0.37825    -0.37737    -0.37291    -0.36831
    -0.36462    -0.36178    -0.35870    -0.35361    -0.35183    -0.34854
    -0.34566    -0.34205    -0.34105    -0.33903    -0.33649    -0.33172
    -0.32951    -0.32724    -0.32412    -0.32335    -0.31392    -0.30800
    -0.30379    -0.30149    -0.30012    -0.29883    -0.29736    -0.29562
    -0.29351    -0.29112    -0.29071    -0.28840    -0.28744    -0.28619
    -0.28376    -0.27361    -0.27180    -0.25354    -0.07731    -0.03357
    -0.01941    -0.01259    -0.00096     0.01306     0.01534     0.01743
     0.01913     0.02040
 
  Peak memory usage:   1029 Mb
  
  end of program scf
   
 Time(scf)  user:     2394.5  user+sys:     2394.5  wallclock:     2482.1
  
  start of program sole
  
    SCRF                   solvation energy
  iteration          Hartrees            kcal/mol
     0               0.0000000            0.0000
     1              -0.0197520          -12.3946
     2              -0.0210204          -13.1905
     3              -0.0212670          -13.3452
     4              -0.0210317          -13.1976
     5              -0.0212668          -13.3451
     6              -0.0212350          -13.3251
  
  stopping: solvation energy converged
  
  iterations:   6    sfinal:    -13.3251 kcal/mol
  
  Peak memory usage:    813 Mb
  
  end of program sole
   
 Time(sole)  user:        0.1  user+sys:        0.1  wallclock:        0.1
  
  start of program post
  
  Writing input files for PBF
  Peak memory usage:    759 Mb
  
  end of program post
   
 Time(post)  user:        0.6  user+sys:        0.6  wallclock:        0.8

 Total cpu seconds     user:   68322.315   user+sys:   68322.315
  
 Total elapsed time:    197056 seconds

Job Toru-SiPh3-NTf-Type-I-E-Sulfonyl-3-chkp-scan-unrestrained-3-SPE completed on tethys at Sun Mar 26 21:40:56 2017
