Job Type-II-Z-sulfonyl-bind-2-chkp-unrestrained-2.1-SPE started on tethys at Thu Mar  9 11:56:00 2017
jobid: tethys-0-58c142ce

  +--------------------------------------------------------------------+
  |  Jaguar version 9.5, release  11                                   |
  |                                                                    |
  |  Copyright Schrodinger, Inc.                                       |
  |  All Rights Reserved.                                              |
  |                                                                    |
  |  The following have contributed to Jaguar (listed alphabetically): |
  |  Mike Beachy, Art Bochevarov, Dale Braden, Yixiang Cao,            |
  |  Chris Cortis, Rich Friesner, Bill Goddard, Hod Greeley,           |
  |  Tom Hughes, Leif Jacobson, Jean-Marc Langlois,                    |
  |  Daniel Mainz, Rob Murphy, Dean Philipp, Tom Pollard,              |
  |  Murco Ringnalda, Mark Watson, Haoyu Yu.                           |
  |                                                                    |
  |  Use of this program should be acknowledged in publications as:    |
  |                                                                    |
  |  Jaguar, version 9.5, Schrodinger, Inc., New York, NY, 2017.       |
  |                                                                    |
  |  A. D. Bochevarov, E. Harder, T. F. Hughes, J. R. Greenwood,       |
  |  D. A. Braden, D. M. Philipp, D. Rinaldo, M. D. Halls,             |
  |  J. Zhang, R. A. Friesner, "Jaguar: A High-Performance Quantum     |
  |  Chemistry Software Program with Strengths in Life and Materials   |
  |  Sciences", Int. J. Quantum Chem., 2013, 113(18), 2110-2142.       |
  +--------------------------------------------------------------------+
  
  start of program pre
  
  Job name: Type-II-Z-sulfonyl-bind-2-chkp-unrestrained-2.1-SPE
  Executables used: /usr/local/shared/schrodinger/current/jaguar-v9.5/bin/Linux-x86_64
  Temporary files : /scratch/ab2144/Type-II-Z-sulfonyl-bind-2-chkp-unrestrained-2.1-SPE
  Maestro file (input):  Type-II-Z-sulfonyl-bind-2-chkp-unrestrained-2.1-SPE.mae
  Maestro file (output): Type-II-Z-sulfonyl-bind-2-chkp-unrestrained-2.1-SPE.01.mae
  
  basis set:             6-31g**                         
  net molecular charge:    0
  multiplicity:            1
  
  keygrid settings 
    wispc.....   7.500E-01
    ldens.....   0
    denspc....   7.500E-01
  
   grid     daf set  nls  grid set  Q type
  ------    -------  ---  --------  ------
  coarse       1      1       1        1
  medium       2      2       2        1
  fine         3      2       3        0
  ultrafine    4      2       4        1
  charge       0      1      -1        1
  gradient     5      2       4        1
  density      0      1       0        0
  DFT-fine     0      1     -13        0
  DFT-med.     0      1     -13        0
  DFT-grad     0      1     -13        0
  DFT-der2     0      1       0        0
  DFT-cphf     0      1       0        0
  LMP2-enrg    4      2       4        1
  LMP2-grad    5      2       2        1
  DFT-cphf2    0      1       0        0
  PBF-dens     0      1       0        0
  plotting     0      1       0        0
  Rel-grad     0      1     -17        0
  
  idftgrdm  100
  ndftgrdm   50    0    0
  idftgrdf  111
  ndftgrdf   85    0    0
  idftgrdg  111
  ndftgrdg   80    3    0
  idftgrdu  433
  ndftgrdu  105    0    0
  idftgrdd  433
  ndftgrdd  105    0    0
  idftgrdc  433
  ndftgrdc   26    0    0
  idftgrdp  433
  ndftgrdp   18    0    0
  
  number of basis functions....         1680
  
 Input geometry:
                                   angstroms
  atom               x                 y                 z
  C1            1.1265000000      3.0863000000     -0.9304000000 
  C2           -0.8111000000      5.1245000000     -0.5308000000 
  C3           -1.1900000000      3.7121000000     -0.3324000000 
  C4           -0.2767000000      2.7333000000     -0.5088000000 
  H5           -1.5531000000      5.9032000000     -0.4244000000 
  C6            4.3704000000      0.3126000000     -1.4964000000 
  C7            3.6983000000      0.3408000000     -0.3364000000 
  C8            2.4479000000      1.1377000000     -0.2405000000 
  C9            2.1316000000      2.0189000000     -1.2111000000 
  H10           5.2737000000     -0.2788000000     -1.5916000000 
  C11           1.4793000000      4.3972000000     -0.9996000000 
  C12           0.4492000000      5.4524000000     -0.8265000000 
  C13           0.8398000000      6.8667000000     -0.9963000000 
  C14           2.1119000000      7.1906000000     -1.2460000000 
  C15           3.1620000000      6.1570000000     -1.3468000000 
  C16           2.8780000000      4.8550000000     -1.2269000000 
  H17           0.0982000000      7.6526000000     -0.9147000000 
  H18           2.3849000000      8.2315000000     -1.3631000000 
  H19           4.1867000000      6.4659000000     -1.5100000000 
  H20           3.6969000000      4.1501000000     -1.2748000000 
  C21           3.9131000000      1.1176000000     -2.6479000000 
  C22           2.8501000000      1.9441000000     -2.5181000000 
  C23           2.3799000000      2.7107000000     -3.7026000000 
  C24           3.0247000000      2.6107000000     -4.8708000000 
  C25           4.2031000000      1.7311000000     -4.9953000000 
  C26           4.6243000000      1.0209000000     -3.9432000000 
  H27           1.5067000000      3.3463000000     -3.6364000000 
  H28           2.6787000000      3.1693000000     -5.7309000000 
  H29           4.7214000000      1.6578000000     -5.9426000000 
  H30           5.4854000000      0.3721000000     -4.0438000000 
  Si31         -2.9320000000      3.3042000000      0.2216000000 
  Si32          4.3987000000     -0.5688000000      1.1341000000 
  C33          -2.9548000000      1.9887000000      4.7175000000 
  C34          -1.7888000000      2.2180000000      4.1033000000 
  C35          -1.7685000000      2.6351000000      2.6865000000 
  C36          -2.9181000000      2.7578000000      1.9997000000 
  C37          -4.2067000000      2.5079000000      2.6882000000 
  C38          -4.2230000000      2.1452000000      3.9764000000 
  H39          -2.9717000000      1.6846000000      5.7560000000 
  H40          -0.8577000000      2.1019000000      4.6430000000 
  H41          -0.8126000000      2.8379000000      2.2252000000 
  H42          -5.1406000000      2.6209000000      2.1517000000 
  H43          -5.1647000000      1.9612000000      4.4770000000 
  C44          -5.7608000000      7.0326000000      0.0378000000 
  C45          -4.7610000000      6.9903000000      0.9260000000 
  C46          -3.8681000000      5.8144000000      0.9798000000 
  C47          -4.0465000000      4.7888000000      0.1299000000 
  C48          -5.1652000000      4.8355000000     -0.8432000000 
  C49          -5.9745000000      5.9013000000     -0.8872000000 
  H50          -6.4164000000      7.8929000000     -0.0027000000 
  H51          -4.6043000000      7.8164000000      1.6075000000 
  H52          -3.0700000000      5.7950000000      1.7119000000 
  H53          -5.3403000000      4.0126000000     -1.5221000000 
  H54          -6.7898000000      5.9352000000     -1.5982000000 
  C55          -4.4139000000     -0.1471000000     -2.5821000000 
  C56          -3.8891000000      0.9672000000     -3.1047000000 
  C57          -3.4455000000      2.0633000000     -2.2183000000 
  C58          -3.5593000000      1.9443000000     -0.8846000000 
  C59          -4.1272000000      0.6993000000     -0.3112000000 
  C60          -4.5481000000     -0.2819000000     -1.1184000000 
  H61          -4.7366000000     -0.9526000000     -3.2290000000 
  H62          -3.7851000000      1.0672000000     -4.1773000000 
  H63          -3.0160000000      2.9541000000     -2.6601000000 
  H64          -4.2110000000      0.5708000000      0.7580000000 
  H65          -4.9804000000     -1.1808000000     -0.6994000000 
  C66           4.0828000000     -5.1011000000      0.0084000000 
  C67           5.2904000000     -4.5433000000      0.1573000000 
  C68           5.4082000000     -3.1152000000      0.5210000000 
  C69           4.3035000000     -2.3758000000      0.7161000000 
  C70           2.9717000000     -2.9968000000      0.5387000000 
  C71           2.8660000000     -4.2889000000      0.2074000000 
  H72           3.9951000000     -6.1459000000     -0.2598000000 
  H73           6.1839000000     -5.1355000000      0.0078000000 
  H74           6.3951000000     -2.6828000000      0.6076000000 
  H75           2.0809000000     -2.4058000000      0.6882000000 
  H76           1.8907000000     -4.7409000000      0.0828000000 
  C77           2.0741000000      0.4727000000      5.0646000000 
  C78           2.6487000000      1.4412000000      4.3431000000 
  C79           3.3969000000      1.1031000000      3.1153000000 
  C80           3.4748000000     -0.1725000000      2.6978000000 
  C81           2.8562000000     -1.2444000000      3.5145000000 
  C82           2.1973000000     -0.9356000000      4.6387000000 
  H83           1.5248000000      0.7176000000      5.9644000000 
  H84           2.5644000000      2.4741000000      4.6550000000 
  H85           3.8567000000      1.9015000000      2.5453000000 
  H86           2.9479000000     -2.2816000000      3.2237000000 
  H87           1.7631000000     -1.7170000000      5.2467000000 
  C88           8.7892000000      0.7855000000      2.0580000000 
  C89           8.2366000000     -0.2245000000      2.7395000000 
  C90           6.8524000000     -0.6480000000      2.4428000000 
  C91           6.1493000000     -0.0370000000      1.4741000000 
  C92           6.7592000000      1.0996000000      0.7399000000 
  C93           8.0118000000      1.4840000000      1.0149000000 
  H94           9.8025000000      1.0981000000      2.2749000000 
  H95           8.8015000000     -0.7336000000      3.5096000000 
  H96           6.4193000000     -1.4608000000      3.0130000000 
  H97           6.1961000000      1.6422000000     -0.0060000000 
  H98           8.4541000000      2.3156000000      0.4816000000 
  O99          -0.7095000000      1.4343000000     -0.4038000000 
  O100          1.5973000000      0.9602000000      0.8155000000 
  P101          0.1613000000      0.3147000000      0.3697000000 
  O102         -0.5120000000     -0.1184000000      1.6375000000 
  N103         -2.8620000000     -2.8705000000     -0.2787000000 
  H104         -2.2762000000     -2.4485000000     -1.0340000000 
  C105         -2.4348000000     -2.5264000000      0.9897000000 
  C106         -4.7817000000     -2.6989000000      4.5719000000 
  C107         -4.0983000000     -1.5417000000      4.1982000000 
  C108         -3.3261000000     -1.5305000000      3.0389000000 
  C109         -3.2460000000     -2.6758000000      2.2238000000 
  C110         -3.9163000000     -3.8443000000      2.6217000000 
  C111         -4.6817000000     -3.8480000000      3.7857000000 
  H112         -5.3833000000     -2.7072000000      5.4761000000 
  H113         -4.1673000000     -0.6496000000      4.8111000000 
  H114         -2.7820000000     -0.6351000000      2.7516000000 
  H115         -3.8245000000     -4.7507000000      2.0369000000 
  H116         -5.1961000000     -4.7570000000      4.0819000000 
  H117         -1.9842000000     -1.5375000000      0.9358000000 
  N118          0.3990000000     -0.8808000000     -0.7120000000 
  S119         -0.1207000000     -0.9905000000     -2.2071000000 
  O120         -0.1327000000      0.2319000000     -3.0173000000 
  O121         -1.3069000000     -1.8894000000     -2.3137000000 
  C122          1.1932000000     -2.0937000000     -2.9349000000 
  F123          2.4182000000     -1.6091000000     -2.7279000000 
  F124          1.1164000000     -3.3201000000     -2.3945000000 
  F125          0.9865000000     -2.2014000000     -4.2540000000 
  C126         -0.6312000000     -3.3866000000      1.3358000000 
  C127         -0.7361000000     -4.7552000000      1.7424000000 
  C128         -0.5101000000     -4.8177000000      3.1060000000 
  C129         -0.2095000000     -3.5042000000      3.5335000000 
  N130         -0.2105000000     -2.6883000000      2.4840000000 
  H131         -0.2273000000     -3.0506000000      0.3858000000 
  H132         -0.9907000000     -5.5639000000      1.0744000000 
  H133         -0.5638000000     -5.6849000000      3.7475000000 
  H134         -0.0253000000     -3.1391000000      4.5341000000 
  H135         -0.1186000000     -1.6637000000      2.4488000000 
  S136         -3.6239000000     -4.3374000000     -0.7428000000 
  O137         -3.0384000000     -5.4501000000      0.0160000000 
  O138         -5.0750000000     -4.1427000000     -0.7266000000 
  C139         -2.2046000000     -4.6578000000     -5.0027000000 
  C140         -1.3991000000     -4.9357000000     -3.8945000000 
  N141         -1.8396000000     -4.8366000000     -2.6384000000 
  C142         -3.0925000000     -4.4331000000     -2.4744000000 
  C143         -3.9886000000     -4.1115000000     -3.4872000000 
  C144         -3.5171000000     -4.2402000000     -4.7956000000 
  H145         -1.8028000000     -4.7659000000     -6.0047000000 
  H146         -0.3639000000     -5.2423000000     -4.0174000000 
  H147         -4.9942000000     -3.7847000000     -3.2543000000 
  H148         -4.1666000000     -4.0164000000     -5.6358000000 
   
  principal moments of inertia:
        amu*angstrom^2:    22206.38447    24521.19294    30613.99196
                g*cm^2: 3.68745644E-36 4.07183938E-36 5.08357233E-36
   
  rotational constants:
               cm^(-1):      0.00075913      0.00068747      0.00055065
                   GHz:      0.02275828      0.02060989      0.01650811
   
  Molecular weight:    1308.28 amu
   
  Stoichiometry: Si2C73PN4H56S2O7F3
[running at reduced cpu priority]
  Molecular Point Group: C1      
  Point Group used: C1
  
  nuclear repulsion energy.......   20853.554803987 hartrees
 
 Non-default options chosen:
   SCF calculation type: DFT(m06-2x)                 
   DFT=M06-2X
   Solvation energy will be computed using PBF
     -solute cavity energy will not be included
     -surface area terms will not be included
   Highest accuracy cutoffs used in SCF
   Solvent: other                                                           
   Internal dielectric constant:    1.000
   Continuum dielectric constant:   2.380
   Solvent probe molecule radius:   2.760
  
 Temporary integer options set:
     73=  2
  
  atom       vdw   vdw2    cov     mass  grid  daf  charge   basis
  C1        1.949  1.900  0.770   12.000    Y    Y      Y    6-31g**
  C2        1.949  1.900  0.770   12.000    Y    Y      Y    6-31g**
  C3        1.949  1.900  0.770   12.000    Y    Y      Y    6-31g**
  C4        1.949  1.900  0.770   12.000    Y    Y      Y    6-31g**
  H5        1.597  1.150  0.320    1.008    Y    Y      Y    6-31g**
  C6        1.949  1.900  0.770   12.000    Y    Y      Y    6-31g**
  C7        1.949  1.900  0.770   12.000    Y    Y      Y    6-31g**
  C8        1.949  1.900  0.770   12.000    Y    Y      Y    6-31g**
  C9        1.949  1.900  0.770   12.000    Y    Y      Y    6-31g**
  H10       1.597  1.150  0.320    1.008    Y    Y      Y    6-31g**
  C11       1.949  1.900  0.770   12.000    Y    Y      Y    6-31g**
  C12       1.949  1.900  0.770   12.000    Y    Y      Y    6-31g**
  C13       1.949  1.900  0.770   12.000    Y    Y      Y    6-31g**
  C14       1.949  1.900  0.770   12.000    Y    Y      Y    6-31g**
  C15       1.949  1.900  0.770   12.000    Y    Y      Y    6-31g**
  C16       1.949  1.900  0.770   12.000    Y    Y      Y    6-31g**
  H17       1.597  1.150  0.320    1.008    Y    Y      Y    6-31g**
  H18       1.597  1.150  0.320    1.008    Y    Y      Y    6-31g**
  H19       1.597  1.150  0.320    1.008    Y    Y      Y    6-31g**
  H20       1.597  1.150  0.320    1.008    Y    Y      Y    6-31g**
  C21       1.949  1.900  0.770   12.000    Y    Y      Y    6-31g**
  C22       1.949  1.900  0.770   12.000    Y    Y      Y    6-31g**
  C23       1.949  1.900  0.770   12.000    Y    Y      Y    6-31g**
  C24       1.949  1.900  0.770   12.000    Y    Y      Y    6-31g**
  C25       1.949  1.900  0.770   12.000    Y    Y      Y    6-31g**
  C26       1.949  1.900  0.770   12.000    Y    Y      Y    6-31g**
  H27       1.597  1.150  0.320    1.008    Y    Y      Y    6-31g**
  H28       1.597  1.150  0.320    1.008    Y    Y      Y    6-31g**
  H29       1.597  1.150  0.320    1.008    Y    Y      Y    6-31g**
  H30       1.597  1.150  0.320    1.008    Y    Y      Y    6-31g**
  Si31      2.217  2.147  1.110   27.977    Y    Y      Y    6-31g**
  Si32      2.217  2.147  1.110   27.977    Y    Y      Y    6-31g**
  C33       1.949  1.900  0.770   12.000    Y    Y      Y    6-31g**
  C34       1.949  1.900  0.770   12.000    Y    Y      Y    6-31g**
  C35       1.949  1.900  0.770   12.000    Y    Y      Y    6-31g**
  C36       1.949  1.900  0.770   12.000    Y    Y      Y    6-31g**
  C37       1.949  1.900  0.770   12.000    Y    Y      Y    6-31g**
  C38       1.949  1.900  0.770   12.000    Y    Y      Y    6-31g**
  H39       1.597  1.150  0.320    1.008    Y    Y      Y    6-31g**
  H40       1.597  1.150  0.320    1.008    Y    Y      Y    6-31g**
  H41       1.597  1.150  0.320    1.008    Y    Y      Y    6-31g**
  H42       1.597  1.150  0.320    1.008    Y    Y      Y    6-31g**
  H43       1.597  1.150  0.320    1.008    Y    Y      Y    6-31g**
  C44       1.949  1.900  0.770   12.000    Y    Y      Y    6-31g**
  C45       1.949  1.900  0.770   12.000    Y    Y      Y    6-31g**
  C46       1.949  1.900  0.770   12.000    Y    Y      Y    6-31g**
  C47       1.949  1.900  0.770   12.000    Y    Y      Y    6-31g**
  C48       1.949  1.900  0.770   12.000    Y    Y      Y    6-31g**
  C49       1.949  1.900  0.770   12.000    Y    Y      Y    6-31g**
  H50       1.597  1.150  0.320    1.008    Y    Y      Y    6-31g**
  H51       1.597  1.150  0.320    1.008    Y    Y      Y    6-31g**
  H52       1.597  1.150  0.320    1.008    Y    Y      Y    6-31g**
  H53       1.597  1.150  0.320    1.008    Y    Y      Y    6-31g**
  H54       1.597  1.150  0.320    1.008    Y    Y      Y    6-31g**
  C55       1.949  1.900  0.770   12.000    Y    Y      Y    6-31g**
  C56       1.949  1.900  0.770   12.000    Y    Y      Y    6-31g**
  C57       1.949  1.900  0.770   12.000    Y    Y      Y    6-31g**
  C58       1.949  1.900  0.770   12.000    Y    Y      Y    6-31g**
  C59       1.949  1.900  0.770   12.000    Y    Y      Y    6-31g**
  C60       1.949  1.900  0.770   12.000    Y    Y      Y    6-31g**
  H61       1.597  1.150  0.320    1.008    Y    Y      Y    6-31g**
  H62       1.597  1.150  0.320    1.008    Y    Y      Y    6-31g**
  H63       1.597  1.150  0.320    1.008    Y    Y      Y    6-31g**
  H64       1.597  1.150  0.320    1.008    Y    Y      Y    6-31g**
  H65       1.597  1.150  0.320    1.008    Y    Y      Y    6-31g**
  C66       1.949  1.900  0.770   12.000    Y    Y      Y    6-31g**
  C67       1.949  1.900  0.770   12.000    Y    Y      Y    6-31g**
  C68       1.949  1.900  0.770   12.000    Y    Y      Y    6-31g**
  C69       1.949  1.900  0.770   12.000    Y    Y      Y    6-31g**
  C70       1.949  1.900  0.770   12.000    Y    Y      Y    6-31g**
  C71       1.949  1.900  0.770   12.000    Y    Y      Y    6-31g**
  H72       1.597  1.150  0.320    1.008    Y    Y      Y    6-31g**
  H73       1.597  1.150  0.320    1.008    Y    Y      Y    6-31g**
  H74       1.597  1.150  0.320    1.008    Y    Y      Y    6-31g**
  H75       1.597  1.150  0.320    1.008    Y    Y      Y    6-31g**
  H76       1.597  1.150  0.320    1.008    Y    Y      Y    6-31g**
  C77       1.949  1.900  0.770   12.000    Y    Y      Y    6-31g**
  C78       1.949  1.900  0.770   12.000    Y    Y      Y    6-31g**
  C79       1.949  1.900  0.770   12.000    Y    Y      Y    6-31g**
  C80       1.949  1.900  0.770   12.000    Y    Y      Y    6-31g**
  C81       1.949  1.900  0.770   12.000    Y    Y      Y    6-31g**
  C82       1.949  1.900  0.770   12.000    Y    Y      Y    6-31g**
  H83       1.597  1.150  0.320    1.008    Y    Y      Y    6-31g**
  H84       1.597  1.150  0.320    1.008    Y    Y      Y    6-31g**
  H85       1.597  1.150  0.320    1.008    Y    Y      Y    6-31g**
  H86       1.597  1.150  0.320    1.008    Y    Y      Y    6-31g**
  H87       1.597  1.150  0.320    1.008    Y    Y      Y    6-31g**
  C88       1.949  1.900  0.770   12.000    Y    Y      Y    6-31g**
  C89       1.949  1.900  0.770   12.000    Y    Y      Y    6-31g**
  C90       1.949  1.900  0.770   12.000    Y    Y      Y    6-31g**
  C91       1.949  1.900  0.770   12.000    Y    Y      Y    6-31g**
  C92       1.949  1.900  0.770   12.000    Y    Y      Y    6-31g**
  C93       1.949  1.900  0.770   12.000    Y    Y      Y    6-31g**
  H94       1.597  1.150  0.320    1.008    Y    Y      Y    6-31g**
  H95       1.597  1.150  0.320    1.008    Y    Y      Y    6-31g**
  H96       1.597  1.150  0.320    1.008    Y    Y      Y    6-31g**
  H97       1.597  1.150  0.320    1.008    Y    Y      Y    6-31g**
  H98       1.597  1.150  0.320    1.008    Y    Y      Y    6-31g**
  O99       1.702  1.600  0.730   15.995    Y    Y      Y    6-31g**
  O100      1.702  1.600  0.730   15.995    Y    Y      Y    6-31g**
  P101      2.147  2.074  1.060   30.974    Y    Y      Y    6-31g**
  O102      1.702  1.600  0.730   15.995    Y    Y      Y    6-31g**
  N103      1.831  1.600  0.750   14.003    Y    Y      Y    6-31g**
  H104      1.597  1.150  0.320    1.008    Y    Y      Y    6-31g**
  C105      1.949  1.900  0.770   12.000    Y    Y      Y    6-31g**
  C106      1.949  1.900  0.770   12.000    Y    Y      Y    6-31g**
  C107      1.949  1.900  0.770   12.000    Y    Y      Y    6-31g**
  C108      1.949  1.900  0.770   12.000    Y    Y      Y    6-31g**
  C109      1.949  1.900  0.770   12.000    Y    Y      Y    6-31g**
  C110      1.949  1.900  0.770   12.000    Y    Y      Y    6-31g**
  C111      1.949  1.900  0.770   12.000    Y    Y      Y    6-31g**
  H112      1.597  1.150  0.320    1.008    Y    Y      Y    6-31g**
  H113      1.597  1.150  0.320    1.008    Y    Y      Y    6-31g**
  H114      1.597  1.150  0.320    1.008    Y    Y      Y    6-31g**
  H115      1.597  1.150  0.320    1.008    Y    Y      Y    6-31g**
  H116      1.597  1.150  0.320    1.008    Y    Y      Y    6-31g**
  H117      1.597  1.150  0.320    1.008    Y    Y      Y    6-31g**
  N118      1.831  1.600  0.750   14.003    Y    Y      Y    6-31g**
  S119      2.070  1.900  1.020   31.972    Y    Y      Y    6-31g**
  O120      1.702  1.600  0.730   15.995    Y    Y      Y    6-31g**
  O121      1.702  1.600  0.730   15.995    Y    Y      Y    6-31g**
  C122      1.949  1.900  0.770   12.000    Y    Y      Y    6-31g**
  F123      1.736  1.682  0.720   18.998    Y    Y      Y    6-31g**
  F124      1.736  1.682  0.720   18.998    Y    Y      Y    6-31g**
  F125      1.736  1.682  0.720   18.998    Y    Y      Y    6-31g**
  C126      1.949  1.900  0.770   12.000    Y    Y      Y    6-31g**
  C127      1.949  1.900  0.770   12.000    Y    Y      Y    6-31g**
  C128      1.949  1.900  0.770   12.000    Y    Y      Y    6-31g**
  C129      1.949  1.900  0.770   12.000    Y    Y      Y    6-31g**
  N130      1.831  1.600  0.750   14.003    Y    Y      Y    6-31g**
  H131      1.597  1.150  0.320    1.008    Y    Y      Y    6-31g**
  H132      1.597  1.150  0.320    1.008    Y    Y      Y    6-31g**
  H133      1.597  1.150  0.320    1.008    Y    Y      Y    6-31g**
  H134      1.597  1.150  0.320    1.008    Y    Y      Y    6-31g**
  H135      1.597  1.150  0.320    1.008    Y    Y      Y    6-31g**
  S136      2.070  1.900  1.020   31.972    Y    Y      Y    6-31g**
  O137      1.702  1.600  0.730   15.995    Y    Y      Y    6-31g**
  O138      1.702  1.600  0.730   15.995    Y    Y      Y    6-31g**
  C139      1.949  1.900  0.770   12.000    Y    Y      Y    6-31g**
  C140      1.949  1.900  0.770   12.000    Y    Y      Y    6-31g**
  N141      1.831  1.600  0.750   14.003    Y    Y      Y    6-31g**
  C142      1.949  1.900  0.770   12.000    Y    Y      Y    6-31g**
  C143      1.949  1.900  0.770   12.000    Y    Y      Y    6-31g**
  C144      1.949  1.900  0.770   12.000    Y    Y      Y    6-31g**
  H145      1.597  1.150  0.320    1.008    Y    Y      Y    6-31g**
  H146      1.597  1.150  0.320    1.008    Y    Y      Y    6-31g**
  H147      1.597  1.150  0.320    1.008    Y    Y      Y    6-31g**
  H148      1.597  1.150  0.320    1.008    Y    Y      Y    6-31g**
  
  Peak memory usage:    768 Mb
  
  end of program pre
   
 Time(pre)  user:        0.8  user+sys:        0.8  wallclock:        1.2
  
  start of program onee
  
  smallest eigenvalue of S:    2.124E-04
  number of canonical orbitals.....         1674
  Peak memory usage:    900 Mb
  
  end of program onee
   
 Time(onee)  user:       17.2  user+sys:       17.2  wallclock:       19.0
  
  start of program hfig
  
  initial wavefunction generated automatically from atomic wavefunctions
 
  Irreducible     Total no   No of occupied orbitals 
  representation  orbitals   Shell_1  Shell_2    ...
  No Symm         1674        340
  ------------------------
  Orbital occupation/shell    1.000
 
  Peak memory usage:    833 Mb
  
  end of program hfig
   
 Time(hfig)  user:       29.9  user+sys:       29.9  wallclock:       31.8
  
  start of program probe
  
  Peak memory usage:    826 Mb
  
  end of program probe
   
 Time(probe)  user:       20.2  user+sys:       20.2  wallclock:       21.2
  
  start of program grid
  
   grid     grid set  grid #  grid sym
  ------    --------  ------  --------
  coarse        0        0        1
  medium        2        1        1
  fine          0        0        1
  ultrafine     4        2        1
  charge       -1        3        1
  gradient      4        2        1
  density       0        0        1
  DFT-fine    -13        4        1
  DFT-med.    -13        4        1
  DFT-grad    -13        4        1
  DFT-der2      0        0        1
  DFT-cphf      0        0        1
  LMP2-enrg     4        2        1
  LMP2-grad     2        1        1
  DFT-cphf2     0        0        1
  PBF-dens      0        0        1
  plotting      0        0        1
  Rel-grad    -17        0        1
  
  number of gridpoints: 
     atom        C1       C2       C3       C4       H5       C6       C7
  grid # 1      100       93       99       96      110       92      101
  grid # 2      360      337      358      360      423      330      358
  grid # 3       13       31       12       18      176        7       10
  grid # 4    48124    48124    48124    48124    48426    48124    48124
   
  number of gridpoints: 
     atom        C8       C9      H10      C11      C12      C13      C14
  grid # 1       97      100      111      102      102       97       94
  grid # 2      357      354      430      360      367      339      338
  grid # 3       13        6      189       31       47       47       47
  grid # 4    48124    48124    48426    48124    48124    48124    48124
   
  number of gridpoints: 
     atom       C15      C16      H17      H18      H19      H20      C21
  grid # 1       95       97      118      118      118      112      101
  grid # 2      338      338      443      450      449      431      364
  grid # 3       42       32      362      420      407      217       18
  grid # 4    48124    48124    48426    48426    48426    48426    48124
   
  number of gridpoints: 
     atom       C22      C23      C24      C25      C26      H27      H28
  grid # 1      100       96       94       93       95      113      118
  grid # 2      357      336      336      335      336      434      451
  grid # 3       10       22       34       39       33      247      417
  grid # 4    48124    48124    48124    48124    48124    48426    48426
   
  number of gridpoints: 
     atom       H29      H30     Si31     Si32      C33      C34      C35
  grid # 1      118      117      474      470       93       93       92
  grid # 2      452      445      474      470      332      333      334
  grid # 3      422      349        7        6       28       26       15
  grid # 4    48426    48426    38542    38542    48124    48124    48124
   
  number of gridpoints: 
     atom       C36      C37      C38      H39      H40      H41      H42
  grid # 1       99       94       93      115      114      109      112
  grid # 2      358      333      332      446      439      425      437
  grid # 3        8       17       25      351      255      168      264
  grid # 4    48124    48124    48124    48426    48426    48426    48426
   
  number of gridpoints: 
     atom       H43      C44      C45      C46      C47      C48      C49
  grid # 1      115       94       93       92      101       97       94
  grid # 2      447      335      335      335      359      339      336
  grid # 3      357       47       38       17       12       33       44
  grid # 4    48426    48124    48124    48124    48124    48124    48124
   
  number of gridpoints: 
     atom       H50      H51      H52      H53      H54      C55      C56
  grid # 1      118      118      112      111      118       93       92
  grid # 2      453      452      437      432      453      333      333
  grid # 3      423      415      257      241      425       27       23
  grid # 4    48426    48426    48426    48426    48426    48124    48124
   
  number of gridpoints: 
     atom       C57      C58      C59      C60      H61      H62      H63
  grid # 1       92      101       96       93      114      117      112
  grid # 2      333      359      337      332      439      452      438
  grid # 3       12        8       23       27      257      385      256
  grid # 4    48124    48124    48124    48124    48426    48426    48426
   
  number of gridpoints: 
     atom       H64      H65      C66      C67      C68      C69      C70
  grid # 1      109      113       94       94       92       99       93
  grid # 2      420      432      335      335      337      360      333
  grid # 3      130      222       43       45       27       14       14
  grid # 4    48426    48426    48124    48124    48124    48124    48124
   
  number of gridpoints: 
     atom       C71      H72      H73      H74      H75      H76      C77
  grid # 1       92      118      118      111      105      111       93
  grid # 2      334      453      453      437      408      429      334
  grid # 3       25      418      422      234       61      190       34
  grid # 4    48124    48426    48426    48426    48426    48426    48124
   
  number of gridpoints: 
     atom       C78      C79      C80      C81      C82      H83      H84
  grid # 1       93       92      100       96       93      116      117
  grid # 2      334      335      357      336      334      446      450
  grid # 3       35       21       12       18       29      343      371
  grid # 4    48124    48124    48124    48124    48124    48426    48426
   
  number of gridpoints: 
     atom       H85      H86      H87      C88      C89      C90      C91
  grid # 1      112      109      113       94       94       92      101
  grid # 2      435      430      434      336      335      335      359
  grid # 3      254      198      266       48       41       22       14
  grid # 4    48426    48426    48426    48124    48124    48124    48124
   
  number of gridpoints: 
     atom       C92      C93      H94      H95      H96      H97      H98
  grid # 1       96       94      118      118      113      111      118
  grid # 2      340      336      453      453      438      427      453
  grid # 3       30       46      424      420      265      190      416
  grid # 4    48124    48124    48426    48426    48426    48426    48426
   
  number of gridpoints: 
     atom       O99     O100     P101     O102     N103     H104     C105
  grid # 1      107      112      443      116       97       97       90
  grid # 2      431      436      443      446      351      391      324
  grid # 3       31       42        6       37        8       52        6
  grid # 4    47716    47716    38640    47716    47928    48426    48124
   
  number of gridpoints: 
     atom      C106     C107     C108     C109     C110     C111     H112
  grid # 1       97       96       95       98       95       96      118
  grid # 2      332      332      335      357      333      334      451
  grid # 3       46       41       24       18       28       42      420
  grid # 4    48124    48124    48124    48124    48124    48124    48426
   
  number of gridpoints: 
     atom      H113     H114     H115     H116     H117     N118     S119
  grid # 1      112      105      109      118      100      108      429
  grid # 2      425      412      425      450      395      398      429
  grid # 3      194       97      166      409       38       10        9
  grid # 4    48426    48426    48426    48426    48426    47928    48492
   
  number of gridpoints: 
     atom      O120     O121     C122     F123     F124     F125     C126
  grid # 1      120      116       91      521      522      532       93
  grid # 2      486      458      320      521      522      532      320
  grid # 3      148       67        7      122       93      246        7
  grid # 4    47716    47716    48124    47062    47062    47062    48124
   
  number of gridpoints: 
     atom      C127     C128     C129     N130     H131     H132     H133
  grid # 1       93       93       94       97      104      111      117
  grid # 2      325      330      329      345      405      438      459
  grid # 3       10       21       17       11       54      240      441
  grid # 4    48124    48124    48124    47928    48426    48426    48426
   
  number of gridpoints: 
     atom      H134     H135     S136     O137     O138     C139     C140
  grid # 1      111      101      445      117      122       96       96
  grid # 2      442      404      445      476      495      332      337
  grid # 3      275       82       12      153      225       40       33
  grid # 4    48426    48426    48492    47716    47716    48124    48124
   
  number of gridpoints: 
     atom      N141     C142     C143     C144     H145     H146     H147
  grid # 1      111       98       96       96      117      115      112
  grid # 2      419      356      330      331      450      443      438
  grid # 3       84       31       34       40      407      335      258
  grid # 4    47928    48124    48124    48124    48426    48426    48426
   
  number of gridpoints: 
     atom      H148    total
  grid # 1      118    18353
  grid # 2      451    57873
  grid # 3      409    19183
  grid # 4    48426  7104526
   
  Peak memory usage:    795 Mb
  
  end of program grid
   
 Time(grid)  user:     1138.3  user+sys:     1138.3  wallclock:     1185.4
  
  start of program rwr
  
  Peak memory usage:    814 Mb
  
  end of program rwr
   
 Time(rwr)  user:       64.9  user+sys:       64.9  wallclock:       74.0
  
  start of program scf
  
 number of electrons..........        680
 number of alpha electrons....        340
 number of beta electrons.....        340
 number of orbitals, total....       1674
 number of doubly-occ'd orbs..        340
 number of open shell orbs....          0
 number of occupied orbitals..        340
 number of virtual orbitals...       1334
 number of hamiltonians.......          1
 number of shells.............          1
 SCF type: DFT=M06-2X
 Energy computed with NOPS off.
  
       i  u  d  i  g                   
       t  p  i  c  r                                 RMS    maximum
       e  d  i  u  i                       energy  density   DIIS  
       r  t  s  t  d       total energy    change  change    error 
  
etot    1  N  N  1  U   -5562.77201248332           3.5E-03  1.1E-01
etot    2  N  Y  1  U   -5541.99195555178 -2.1E+01  1.5E-02  1.0E-01
etot    3  N  Y  1  U   -5360.16018256909 -1.8E+02  1.4E-02  3.0E-01
etot    4  N  Y  1  U   -5561.50004276880  2.0E+02  3.1E-03  9.2E-02
etot    5  N  Y  1  U   -5573.47044047820  1.2E+01  1.8E-03  3.7E-02
etot    6  N  Y  1  U   -5568.63987722181 -4.8E+00  1.5E-03  8.3E-02
etot    7  N  Y  1  U   -5573.99647701066  5.4E+00  8.2E-04  3.0E-02
etot    8  N  Y  1  U   -5575.51694321583  1.5E+00  1.7E-04  7.8E-03
etot    9  N  Y  1  U   -5575.52707594146  1.0E-02  8.8E-05  6.2E-03
etot   10  N  Y  1  U   -5575.54121721745  1.4E-02  3.3E-05  1.2E-03
etot   11  N  Y  1  U   -5575.54247777022  1.3E-03  1.9E-05  7.8E-04
etot   12  N  Y  1  U   -5575.54305746731  5.8E-04  8.1E-06  2.4E-04
etot   13  N  Y  1  U   -5575.54312646205  6.9E-05  3.0E-06  2.0E-04
etot   14  N  N  1  U   -5575.54314184079  1.5E-05  0.0E+00  0.0E+00
  
  
 Energy components, in hartrees:
   (A)  Nuclear repulsion............   20853.55480398740
   (E)  Total one-electron terms.....  -49234.77127487348
   (F)    Electron-nuclear...........  -54770.82302288707
   (H)    Kinetic....................    5536.05174801361
   (I)  Total two-electron terms.....   22805.67332904529
   (J)    Coulomb....................   23456.93448663023
   (K)    Exchange+Correlation.......    -651.26115758495
   (L)  Electronic energy............  -26429.09794582819  (E+I)
   (M)  -V/T.........................       2.00713349434  (-(A+F+I)/H)
   (N)  Total energy.................   -5575.54314184079  (A+L)
   (O)  Gas phase energy.............   -5575.54314184079
  
 SCFE: SCF energy: DFT(m06-2x)     -5575.54314184079 hartrees   iterations:  14
  
 
 HOMO energy:    -0.25025
 LUMO energy:    -0.06072
 
  Orbital energies (hartrees): 
   -90.17090   -90.15256   -78.21232   -67.00906   -67.00402   -25.28598
   -25.28536   -25.28401   -19.69121   -19.69102   -19.65091   -19.64712
   -19.62824   -19.62243   -19.60805   -14.82793   -14.80997   -14.79097
   -14.74240   -10.80123   -10.65242   -10.63305   -10.62736   -10.62428
   -10.62022   -10.60829   -10.60024   -10.59358   -10.59084   -10.58476
   -10.57539   -10.57523   -10.57227   -10.56918   -10.56693   -10.56575
   -10.56455   -10.56125   -10.56046   -10.55982   -10.55930   -10.55857
   -10.55850   -10.55749   -10.55609   -10.55361   -10.55333   -10.55161
   -10.55130   -10.55119   -10.55062   -10.55015   -10.55014   -10.55014
   -10.54979   -10.54936   -10.54917   -10.54864   -10.54861   -10.54853
   -10.54840   -10.54824   -10.54823   -10.54810   -10.54794   -10.54738
   -10.54673   -10.54666   -10.54662   -10.54652   -10.54607   -10.54559
   -10.54557   -10.54536   -10.54517   -10.54509   -10.54394   -10.54372
   -10.54355   -10.54034   -10.53786   -10.53667   -10.53627   -10.53517
   -10.53428   -10.53372   -10.53239   -10.53103   -10.53056   -10.53054
   -10.52818   -10.52072    -8.48137    -8.46087    -6.99177    -6.40353
    -6.40246    -6.40197    -6.38277    -6.38236    -6.38223    -5.54084
    -5.53533    -5.11047    -5.10927    -5.10752    -3.85055    -3.85037
    -3.85007    -3.84503    -3.84483    -3.84465    -1.45184    -1.36080
    -1.36019    -1.24137    -1.23308    -1.21313    -1.19017    -1.12795
    -1.11649    -1.10122    -1.09128    -1.08350    -1.05600    -0.98673
    -0.97822    -0.96604    -0.96378    -0.94606    -0.94228    -0.94178
    -0.93977    -0.93891    -0.92865    -0.92750    -0.91865    -0.90885
    -0.90013    -0.89836    -0.88798    -0.87513    -0.85125    -0.84614
    -0.84504    -0.84408    -0.84405    -0.83667    -0.83630    -0.83574
    -0.83277    -0.83203    -0.83149    -0.82702    -0.82615    -0.82559
    -0.82480    -0.82342    -0.82166    -0.81978    -0.81654    -0.80724
    -0.79874    -0.76034    -0.75159    -0.74080    -0.72963    -0.71126
    -0.70555    -0.70381    -0.69709    -0.69631    -0.69224    -0.68690
    -0.68077    -0.67875    -0.67831    -0.67651    -0.67624    -0.67515
    -0.67299    -0.67260    -0.67075    -0.66974    -0.66841    -0.66424
    -0.66320    -0.66093    -0.65995    -0.65732    -0.65343    -0.65178
    -0.64869    -0.64728    -0.63818    -0.62520    -0.60851    -0.60786
    -0.60606    -0.60125    -0.59855    -0.58394    -0.58231    -0.58037
    -0.57944    -0.57852    -0.57751    -0.57322    -0.57045    -0.56880
    -0.56290    -0.55881    -0.55802    -0.55321    -0.55008    -0.54670
    -0.54436    -0.53991    -0.53760    -0.53649    -0.53549    -0.53196
    -0.52867    -0.52722    -0.52457    -0.52251    -0.52040    -0.51780
    -0.51663    -0.51602    -0.51545    -0.51357    -0.51032    -0.50944
    -0.50767    -0.50611    -0.50264    -0.50088    -0.50064    -0.49948
    -0.49800    -0.49779    -0.49658    -0.49571    -0.49521    -0.49337
    -0.49201    -0.49201    -0.49038    -0.48879    -0.48610    -0.48450
    -0.48428    -0.48334    -0.48033    -0.47983    -0.47884    -0.47863
    -0.47781    -0.47240    -0.46998    -0.46890    -0.46382    -0.46279
    -0.46110    -0.45549    -0.45276    -0.45024    -0.44835    -0.44420
    -0.44320    -0.44118    -0.43842    -0.43462    -0.43067    -0.42826
    -0.42387    -0.42328    -0.42302    -0.42256    -0.42004    -0.41885
    -0.41744    -0.41583    -0.41110    -0.40880    -0.40634    -0.40075
    -0.39961    -0.39896    -0.39672    -0.39374    -0.39255    -0.39180
    -0.38948    -0.38883    -0.38850    -0.38775    -0.38515    -0.38146
    -0.38016    -0.37696    -0.37597    -0.37496    -0.37345    -0.36677
    -0.36138    -0.35548    -0.35310    -0.35025    -0.34659    -0.34456
    -0.34338    -0.34201    -0.34050    -0.34039    -0.33849    -0.33525
    -0.33319    -0.32170    -0.31593    -0.31291    -0.30673    -0.30658
    -0.30296    -0.30221    -0.30027    -0.29811    -0.29715    -0.29622
    -0.29426    -0.29241    -0.28825    -0.28793    -0.28508    -0.28372
    -0.28117    -0.27818    -0.26936    -0.25025    -0.06072    -0.02244
    -0.01701    -0.00357    -0.00052     0.01166     0.01919     0.02125
     0.02280     0.02370
 
  Peak memory usage:   1028 Mb
  
  end of program scf
   
 Time(scf)  user:    34227.6  user+sys:    34227.6  wallclock:    44883.5
  
  start of program ch
  
  gridpoints used for charge fit        16585
    out of a possible maximum of        19183
  
   Electrostatic potential fitting constrained to reproduce
     total charge:                yes
     dipole moment:               no 
     traceless quadrupole moment: no 
     traceless octapole moment:   no 
  
  Atomic charges from electrostatic potential: 
   
 Atom       C1           C2           C3           C4           H5      
 Charge   -0.10014     -0.43824      0.13316      0.00477      0.17375
   
 Atom       C6           C7           C8           C9           H10     
 Charge   -0.38216      0.01037      0.18634      0.01092      0.20304
   
 Atom       C11          C12          C13          C14          C15     
 Charge    0.05379      0.26915     -0.24535     -0.12495     -0.12792
   
 Atom       C16          H17          H18          H19          H20     
 Charge   -0.18028      0.15357      0.13190      0.13699      0.11560
   
 Atom       C21          C22          C23          C24          C25     
 Charge    0.25629      0.01368     -0.10707     -0.21414     -0.05351
   
 Atom       C26          H27          H28          H29          H30     
 Charge   -0.30775      0.14224      0.15315      0.12412      0.16254
   
 Atom       Si31         Si32         C33          C34          C35     
 Charge    0.02727     -0.21451     -0.16189     -0.13001     -0.00251
   
 Atom       C36          C37          C38          H39          H40     
 Charge   -0.04169     -0.18879     -0.09099      0.12910      0.12017
   
 Atom       H41          H42          H43          C44          C45     
 Charge    0.05493      0.14051      0.12028     -0.13868     -0.16520
   
 Atom       C46          C47          C48          C49          H50     
 Charge   -0.13916      0.15116     -0.20812     -0.11184      0.13321
   
 Atom       H51          H52          H53          H54          C55     
 Charge    0.13681      0.12209      0.10899      0.13332     -0.23904
   
 Atom       C56          C57          C58          C59          C60     
 Charge   -0.09665     -0.12398      0.14995     -0.29961      0.03605
   
 Atom       H61          H62          H63          H64          H65     
 Charge    0.14157      0.12377      0.10380      0.13823      0.06701
   
 Atom       C66          C67          C68          C69          C70     
 Charge   -0.21576     -0.12260     -0.17478      0.20715     -0.25878
   
 Atom       C71          H72          H73          H74          H75     
 Charge    0.00904      0.15015      0.13174      0.11450      0.17320
   
 Atom       H76          C77          C78          C79          C80     
 Charge    0.07230     -0.16660     -0.06171     -0.24541      0.14700
   
 Atom       C81          C82          H83          H84          H85     
 Charge   -0.12515     -0.12627      0.13072      0.11495      0.17116
   
 Atom       H86          H87          C88          C89          C90     
 Charge    0.08659      0.11620     -0.11752     -0.17043     -0.10870
   
 Atom       C91          C92          C93          H94          H95     
 Charge    0.13719     -0.17633     -0.13982      0.12980      0.13958
   
 Atom       H96          H97          H98          O99          O100    
 Charge    0.10783      0.13717      0.13149     -0.22101     -0.30910
   
 Atom       P101         O102         N103         H104         C105    
 Charge    1.18292     -0.69998     -0.33296      0.37826     -0.19468
   
 Atom       C106         C107         C108         C109         C110    
 Charge   -0.07396     -0.15757     -0.22631      0.39830     -0.18985
   
 Atom       C111         H112         H113         H114         H115    
 Charge   -0.19479      0.12693      0.12880      0.15857      0.17464
   
 Atom       H116         H117         N118         S119         O120    
 Charge    0.15231      0.16985     -0.63857      0.68718     -0.42684
   
 Atom       O121         C122         F123         F124         F125    
 Charge   -0.48809      0.39181     -0.10649     -0.11234     -0.13747
   
 Atom       C126         C127         C128         C129         N130    
 Charge    0.14012     -0.07969     -0.32938      0.04241     -0.23165
   
 Atom       H131         H132         H133         H134         H135    
 Charge    0.03147      0.17254      0.20329      0.15285      0.32063
   
 Atom       S136         O137         O138         C139         C140    
 Charge    0.56977     -0.41100     -0.40792     -0.49816      0.46413
   
 Atom       N141         C142         C143         C144         H145    
 Charge   -0.64067      0.64431     -0.53426      0.23992      0.20771
   
 Atom       H146         H147         H148    
 Charge    0.04159      0.22417      0.10092
  
  sum of atomic charges:    -0.000000
   
 RMS Error   9.83E-04 hartrees
 
  Peak memory usage:    816 Mb
  
  end of program ch
   
 Time(ch)  user:       19.2  user+sys:       19.2  wallclock:       33.3
  
  start of program post
  
  Writing input files for PBF
  Peak memory usage:    759 Mb
  
  end of program post
   
 Time(post)  user:        0.8  user+sys:        0.8  wallclock:        1.8

  start of program pbf

Pbf Version 4.10

Molecular surface area:      830.22367   [A2]
Reaction field energy:       -17.67770   [kT]
  Peak memory usage: 722 Mb

  end of program pbf

 Time(pbf)  user:       13.7  user+sys:       13.7  wallclock:       21.1
  
  start of program solv
  
   number of surface charges from PBF   13300
   sum of surface charges     -0.00035
   
  nuclear repulsion energy.......   20853.554803987 hartrees
  Peak memory usage:    894 Mb
  
  end of program solv
   
 Time(solv)  user:       36.9  user+sys:       36.9  wallclock:       58.0
  
  start of program scf
  
 Energy computed with NOPS off.
  
       i  u  d  i  g                   
       t  p  i  c  r                                 RMS    maximum
       e  d  i  u  i                       energy  density   DIIS  
       r  t  s  t  d       total energy    change  change    error 
  
etot    1  N  N  1  U   -5575.58016043584           5.1E-05  1.1E-03
etot    2  N  Y  1  U   -5575.58094203136  7.8E-04  1.7E-05  8.8E-04
etot    3  N  Y  1  U   -5575.58119341322  2.5E-04  5.6E-06  4.5E-04
etot    4  N  Y  1  U   -5575.58124434196  5.1E-05  2.5E-06  1.1E-04
etot    5  N  N  1  U   -5575.58125157179  7.2E-06  0.0E+00  0.0E+00
  
  
 Energy components, in hartrees:
   (A)  Total zero-electron terms....   20856.44986209009
   (B)    Nuclear-nuclear............   20853.55480398740
   (C)    Nuclear-solvent............       2.89505810270
   (E)  Total one-electron terms.....  -49239.28463030627
   (F)    Electron-nuclear...........  -54772.47140264519
   (G)    Electron-solvent...........      -2.93424556671
   (H)    Kinetic....................    5536.12101790564
   (I)  Total two-electron terms.....   22807.25351664439
   (J)    Coulomb....................   23458.53772721418
   (K)    Exchange+Correlation.......    -651.28421056980
   (L)  Electronic energy............  -26432.03111366188  (E+I)
   (N)  Total quantum mech. energy...   -5575.58125157179  (A+L)
   (O)  Gas phase energy.............   -5575.54314184079
   (P)  Solution phase energy........   -5575.56165783978  (Q+R+S)
   (Q)    Total solute energy........   -5575.54206410777  (N-C-G)
   (R)    Total solvent energy.......      -0.01959373201  (C/2+G/2)
   (S)    Solute cavity energy.......       0.00000000000
   (U)  Reorganization energy........       0.00107773302  (Q-O)
   (V)  Solvation energy.............      -0.01851599899  (P-O)
  
 SCFE:  Solution phase energy: DFT(m06-2x)      -5575.56165783978 hartrees
        SCF iterations:   5
  
 
 HOMO energy:    -0.25371
 LUMO energy:    -0.06081
 
  Orbital energies (hartrees): 
   -90.17513   -90.15687   -78.21512   -67.01144   -67.00713   -25.28992
   -25.28940   -25.28854   -19.69435   -19.69379   -19.65516   -19.65148
   -19.63162   -19.62745   -19.61012   -14.82737   -14.81204   -14.78869
   -14.74579   -10.80536   -10.65328   -10.63162   -10.63095   -10.62319
   -10.62263   -10.60451   -10.60048   -10.58818   -10.58726   -10.57912
   -10.57638   -10.57612   -10.57439   -10.57281   -10.56867   -10.56791
   -10.56455   -10.56180   -10.56161   -10.56123   -10.56096   -10.56043
   -10.56033   -10.55691   -10.55681   -10.55618   -10.55550   -10.55450
   -10.55367   -10.55326   -10.55308   -10.55255   -10.55165   -10.55133
   -10.55091   -10.55062   -10.55055   -10.55048   -10.55047   -10.55023
   -10.55015   -10.55011   -10.54948   -10.54919   -10.54916   -10.54883
   -10.54852   -10.54825   -10.54821   -10.54785   -10.54765   -10.54746
   -10.54739   -10.54716   -10.54710   -10.54698   -10.54636   -10.54619
   -10.54547   -10.54290   -10.54079   -10.53988   -10.53903   -10.53785
   -10.53743   -10.53689   -10.53602   -10.53366   -10.53353   -10.53210
   -10.53069   -10.52421    -8.48553    -8.46513    -6.99458    -6.40767
    -6.40669    -6.40608    -6.38704    -6.38662    -6.38650    -5.54322
    -5.53843    -5.11327    -5.11208    -5.11032    -3.85293    -3.85274
    -3.85245    -3.84813    -3.84792    -3.84775    -1.45601    -1.36538
    -1.36395    -1.24610    -1.23614    -1.21730    -1.19321    -1.13317
    -1.11609    -1.10548    -1.09340    -1.08154    -1.05801    -0.99023
    -0.98146    -0.96682    -0.96664    -0.94839    -0.94493    -0.94343
    -0.94183    -0.94115    -0.93206    -0.92334    -0.92145    -0.91178
    -0.89903    -0.89712    -0.89111    -0.87468    -0.85412    -0.84722
    -0.84639    -0.84612    -0.84436    -0.83919    -0.83882    -0.83680
    -0.83546    -0.83399    -0.83347    -0.82888    -0.82829    -0.82792
    -0.82723    -0.82673    -0.82413    -0.82300    -0.81964    -0.80770
    -0.80172    -0.76373    -0.75079    -0.73701    -0.73291    -0.71155
    -0.70806    -0.70634    -0.69917    -0.69655    -0.69172    -0.68923
    -0.68405    -0.68121    -0.68067    -0.67901    -0.67856    -0.67525
    -0.67480    -0.67442    -0.67346    -0.67132    -0.67069    -0.66571
    -0.66554    -0.66215    -0.66085    -0.65923    -0.65458    -0.65410
    -0.65081    -0.64642    -0.64080    -0.62773    -0.61035    -0.60926
    -0.60567    -0.60352    -0.60092    -0.58602    -0.58372    -0.58227
    -0.58083    -0.58042    -0.57585    -0.57531    -0.57298    -0.56980
    -0.56264    -0.56223    -0.56028    -0.55719    -0.55248    -0.54890
    -0.54711    -0.54194    -0.53890    -0.53701    -0.53631    -0.53205
    -0.52995    -0.52862    -0.52681    -0.52498    -0.52144    -0.52042
    -0.51946    -0.51816    -0.51755    -0.51638    -0.51210    -0.51080
    -0.50895    -0.50826    -0.50438    -0.50280    -0.50262    -0.50059
    -0.50020    -0.49989    -0.49977    -0.49749    -0.49562    -0.49434
    -0.49275    -0.49165    -0.49102    -0.48908    -0.48760    -0.48586
    -0.48447    -0.48374    -0.48213    -0.48160    -0.48064    -0.48041
    -0.47956    -0.47246    -0.47221    -0.47034    -0.46636    -0.46157
    -0.45859    -0.45719    -0.45564    -0.45157    -0.45030    -0.44620
    -0.44500    -0.44402    -0.44114    -0.43639    -0.43301    -0.43082
    -0.42674    -0.42649    -0.42598    -0.42508    -0.42255    -0.42129
    -0.42024    -0.41702    -0.41415    -0.41147    -0.40803    -0.40418
    -0.40222    -0.40169    -0.39925    -0.39545    -0.39370    -0.39298
    -0.39113    -0.39080    -0.39009    -0.38995    -0.38769    -0.38429
    -0.38405    -0.38005    -0.37902    -0.37786    -0.37605    -0.36977
    -0.35970    -0.35829    -0.35648    -0.35305    -0.34949    -0.34557
    -0.34501    -0.34406    -0.34278    -0.34124    -0.33826    -0.33592
    -0.33467    -0.32472    -0.31863    -0.31490    -0.30917    -0.30780
    -0.30568    -0.30525    -0.30200    -0.30155    -0.29993    -0.29857
    -0.29660    -0.29402    -0.29098    -0.29074    -0.28714    -0.28701
    -0.28401    -0.28156    -0.27246    -0.25371    -0.06081    -0.02051
    -0.02035    -0.00348    -0.00018     0.00837     0.01662     0.01852
     0.02086     0.02273
 
  Peak memory usage:   1029 Mb
  
  end of program scf
   
 Time(scf)  user:    11011.2  user+sys:    11011.2  wallclock:    18324.3
  
  start of program sole
  
    SCRF                   solvation energy
  iteration          Hartrees            kcal/mol
     0               0.0000000            0.0000
     1              -0.0185160          -11.6190
  
  solvation energy not yet converged... 
  
  Peak memory usage:    813 Mb
  
  end of program sole
   
 Time(sole)  user:        0.2  user+sys:        0.2  wallclock:        0.3
  
  start of program ch
  
  gridpoints used for charge fit        16585
    out of a possible maximum of        16585
  
   Electrostatic potential fitting constrained to reproduce
     total charge:                yes
     dipole moment:               no 
     traceless quadrupole moment: no 
     traceless octapole moment:   no 
  
  Atomic charges from electrostatic potential: 
   
 Atom       C1           C2           C3           C4           H5      
 Charge   -0.10135     -0.45266      0.14803     -0.00645      0.17968
   
 Atom       C6           C7           C8           C9           H10     
 Charge   -0.39942      0.03034      0.17343      0.01668      0.20971
   
 Atom       C11          C12          C13          C14          C15     
 Charge    0.05368      0.27134     -0.25486     -0.13034     -0.13545
   
 Atom       C16          H17          H18          H19          H20     
 Charge   -0.18137      0.16164      0.14048      0.14525      0.11468
   
 Atom       C21          C22          C23          C24          C25     
 Charge    0.26324      0.01375     -0.10883     -0.22464     -0.05872
   
 Atom       C26          H27          H28          H29          H30     
 Charge   -0.31863      0.14564      0.16167      0.13210      0.17042
   
 Atom       Si31         Si32         C33          C34          C35     
 Charge    0.01051     -0.24853     -0.16569     -0.14402     -0.00101
   
 Atom       C36          C37          C38          H39          H40     
 Charge   -0.04197     -0.18879     -0.10134      0.13724      0.12871
   
 Atom       H41          H42          H43          C44          C45     
 Charge    0.05436      0.14316      0.12820     -0.14686     -0.17117
   
 Atom       C46          C47          C48          C49          H50     
 Charge   -0.14391      0.15415     -0.20980     -0.12082      0.14159
   
 Atom       H51          H52          H53          H54          C55     
 Charge    0.14477      0.12662      0.10785      0.14204     -0.24282
   
 Atom       C56          C57          C58          C59          C60     
 Charge   -0.10459     -0.12131      0.15435     -0.29910      0.02143
   
 Atom       H61          H62          H63          H64          H65     
 Charge    0.14648      0.13067      0.10599      0.13783      0.07148
   
 Atom       C66          C67          C68          C69          C70     
 Charge   -0.22365     -0.13181     -0.18522      0.22590     -0.26815
   
 Atom       C71          H72          H73          H74          H75     
 Charge    0.00878      0.15872      0.13996      0.11979      0.17749
   
 Atom       H76          C77          C78          C79          C80     
 Charge    0.07323     -0.17001     -0.06982     -0.25513      0.15789
   
 Atom       C81          C82          H83          H84          H85     
 Charge   -0.13429     -0.13172      0.13680      0.12145      0.17572
   
 Atom       H86          H87          C88          C89          C90     
 Charge    0.08882      0.12477     -0.12493     -0.17759     -0.11664
   
 Atom       C91          C92          C93          H94          H95     
 Charge    0.14672     -0.17964     -0.14914      0.13823      0.14805
   
 Atom       H96          H97          H98          O99          O100    
 Charge    0.11308      0.13882      0.13937     -0.20976     -0.29633
   
 Atom       P101         O102         N103         H104         C105    
 Charge    1.17156     -0.69344     -0.35186      0.39306     -0.17550
   
 Atom       C106         C107         C108         C109         C110    
 Charge   -0.08258     -0.15913     -0.23234      0.39345     -0.19590
   
 Atom       C111         H112         H113         H114         H115    
 Charge   -0.19825      0.13629      0.13415      0.16445      0.17630
   
 Atom       H116         H117         N118         S119         O120    
 Charge    0.16030      0.15881     -0.63724      0.69691     -0.43990
   
 Atom       O121         C122         F123         F124         F125    
 Charge   -0.48943      0.38736     -0.10625     -0.10841     -0.13958
   
 Atom       C126         C127         C128         C129         N130    
 Charge    0.17396     -0.08797     -0.33399      0.05421     -0.25504
   
 Atom       H131         H132         H133         H134         H135    
 Charge    0.01391      0.17627      0.21324      0.16153      0.32783
   
 Atom       S136         O137         O138         C139         C140    
 Charge    0.58275     -0.42794     -0.43026     -0.50366      0.47252
   
 Atom       N141         C142         C143         C144         H145    
 Charge   -0.66556      0.64929     -0.54022      0.24404      0.21786
   
 Atom       H146         H147         H148    
 Charge    0.04557      0.23184      0.11240
  
  sum of atomic charges:    -0.000000
   
 RMS Error   9.92E-04 hartrees
 
  Peak memory usage:    816 Mb
  
  end of program ch
   
 Time(ch)  user:       18.3  user+sys:       18.3  wallclock:       27.2
  
  start of program post
  
  Writing input files for PBF
  Peak memory usage:    759 Mb
  
  end of program post
   
 Time(post)  user:        0.8  user+sys:        0.8  wallclock:        1.9

  start of program pbf

Pbf Version 4.10

Molecular surface area:      830.22367   [A2]
Reaction field energy:       -20.21143   [kT]
  Peak memory usage: 722 Mb

  end of program pbf

 Time(pbf)  user:       15.1  user+sys:       15.2  wallclock:       23.5
  
  start of program solv
  
   number of surface charges from PBF   13300
   sum of surface charges     -0.00037
   
  nuclear repulsion energy.......   20853.554803987 hartrees
  Peak memory usage:    894 Mb
  
  end of program solv
   
 Time(solv)  user:       36.1  user+sys:       36.1  wallclock:       59.6
  
  start of program scf
  
 Energy computed with NOPS off.
  
       i  u  d  i  g                   
       t  p  i  c  r                                 RMS    maximum
       e  d  i  u  i                       energy  density   DIIS  
       r  t  s  t  d       total energy    change  change    error 
  
etot    1  N  N  1  U   -5575.58393906857           6.0E-06  1.6E-04
etot    2  N  N  1  U   -5575.58394104640  2.0E-06  0.0E+00  0.0E+00
  
  
 Energy components, in hartrees:
   (A)  Total zero-electron terms....   20856.73214455093
   (B)    Nuclear-nuclear............   20853.55480398740
   (C)    Nuclear-solvent............       3.17734056354
   (E)  Total one-electron terms.....  -49239.95747889733
   (F)    Electron-nuclear...........  -54772.86833196891
   (G)    Electron-solvent...........      -3.21952280122
   (H)    Kinetic....................    5536.13037587281
   (I)  Total two-electron terms.....   22807.64139330000
   (J)    Coulomb....................   23458.92742369413
   (K)    Exchange+Correlation.......    -651.28603039414
   (L)  Electronic energy............  -26432.31608559733  (E+I)
   (N)  Total quantum mech. energy...   -5575.58394104640  (A+L)
   (O)  Gas phase energy.............   -5575.54314184079
   (P)  Solution phase energy........   -5575.56284992755  (Q+R+S)
   (Q)    Total solute energy........   -5575.54175880871  (N-C-G)
   (R)    Total solvent energy.......      -0.02109111884  (C/2+G/2)
   (S)    Solute cavity energy.......       0.00000000000
   (U)  Reorganization energy........       0.00138303208  (Q-O)
   (V)  Solvation energy.............      -0.01970808676  (P-O)
  
 SCFE:  Solution phase energy: DFT(m06-2x)      -5575.56284992755 hartrees
        SCF iterations:   2
  
 
 HOMO energy:    -0.28002
 LUMO energy:    -0.06018
 
  Orbital energies (hartrees): 
   -52.71598   -50.52723   -50.33432   -49.01637   -44.96332   -34.86427
   -33.65360   -33.41135   -33.30453   -27.97704   -25.27494   -20.84799
   -20.54197   -18.24851   -17.49606   -16.51671   -15.83598   -14.88417
   -14.68431   -14.47038   -13.85830   -13.31922   -13.27640   -13.19795
   -13.15319   -12.94179   -12.89247   -12.82744   -12.67890   -12.51156
   -12.48836   -12.39824   -12.34502   -12.15508   -11.63742   -11.63515
   -11.60249   -11.48621   -11.46339   -11.37935   -11.37701   -11.28658
   -11.27081   -11.20524   -11.20430   -11.14438   -11.03484   -11.00151
   -10.93869   -10.82952   -10.79500   -10.79285   -10.71807   -10.66360
   -10.66152   -10.63478   -10.63065   -10.62788   -10.59497   -10.58863
   -10.58467   -10.57225   -10.56412   -10.55195   -10.55194   -10.48798
   -10.48205   -10.47346   -10.46572   -10.45894   -10.45642   -10.37481
   -10.36635   -10.36225   -10.36082   -10.34752   -10.32451   -10.31733
   -10.31179   -10.27605   -10.22886   -10.22285   -10.22092   -10.19211
   -10.02092    -9.99334    -9.98617    -9.95857    -9.91655    -9.91637
    -9.86833    -9.85217    -9.54895    -9.54205    -9.31595    -9.22280
    -9.21563    -9.06807    -9.03211    -8.94375    -8.89989    -8.74068
    -8.54547    -8.35089    -8.26714    -7.61476    -7.43665    -6.84726
    -6.67092    -6.52808    -4.90052    -4.29840    -1.38604    -1.33417
    -1.19833    -1.11490    -1.11188    -1.10907    -1.02730    -1.00757
    -0.99193    -0.97562    -0.96243    -0.96234    -0.94262    -0.94189
    -0.92811    -0.92731    -0.90764    -0.90129    -0.88633    -0.88212
    -0.87452    -0.86350    -0.86293    -0.86260    -0.83236    -0.83174
    -0.82948    -0.81983    -0.81658    -0.80194    -0.80034    -0.79472
    -0.79277    -0.77612    -0.77456    -0.77122    -0.76153    -0.75714
    -0.75564    -0.75320    -0.75102    -0.75085    -0.74970    -0.74104
    -0.74090    -0.74077    -0.74023    -0.73816    -0.73488    -0.73103
    -0.73056    -0.73003    -0.72901    -0.72767    -0.72729    -0.72703
    -0.72693    -0.72654    -0.72227    -0.72151    -0.71876    -0.71650
    -0.70395    -0.70137    -0.69572    -0.69518    -0.69273    -0.68940
    -0.68532    -0.68436    -0.68102    -0.67005    -0.66989    -0.66695
    -0.66126    -0.65748    -0.64916    -0.63228    -0.62995    -0.62419
    -0.62199    -0.62184    -0.62092    -0.61633    -0.61621    -0.61554
    -0.61541    -0.61310    -0.60830    -0.60726    -0.60548    -0.60538
    -0.60387    -0.60135    -0.59993    -0.59785    -0.59652    -0.59375
    -0.59040    -0.58934    -0.58920    -0.58745    -0.58596    -0.58382
    -0.57979    -0.56998    -0.56971    -0.56799    -0.56796    -0.56667
    -0.56456    -0.56125    -0.55739    -0.55430    -0.55282    -0.55266
    -0.55215    -0.54995    -0.54913    -0.54881    -0.54535    -0.54454
    -0.53990    -0.53759    -0.53575    -0.53146    -0.53127    -0.52915
    -0.52725    -0.52718    -0.52421    -0.52409    -0.52286    -0.52007
    -0.51831    -0.51703    -0.51697    -0.51498    -0.51454    -0.51441
    -0.51392    -0.51350    -0.51320    -0.51100    -0.51100    -0.51072
    -0.50833    -0.50809    -0.50418    -0.50394    -0.50092    -0.50081
    -0.50007    -0.49825    -0.49733    -0.49722    -0.49430    -0.49364
    -0.49144    -0.48847    -0.48835    -0.48377    -0.47454    -0.47395
    -0.47177    -0.47174    -0.47136    -0.47096    -0.47058    -0.46415
    -0.46354    -0.45825    -0.45760    -0.45717    -0.45606    -0.45583
    -0.45504    -0.45394    -0.45391    -0.44993    -0.44990    -0.44878
    -0.44744    -0.44662    -0.44611    -0.44590    -0.44516    -0.44330
    -0.43790    -0.43744    -0.43603    -0.43500    -0.43055    -0.42976
    -0.42976    -0.42763    -0.42564    -0.42502    -0.42472    -0.42161
    -0.42131    -0.42095    -0.41558    -0.41127    -0.40566    -0.40140
    -0.37553    -0.37186    -0.36853    -0.35985    -0.34196    -0.33837
    -0.33161    -0.32990    -0.32493    -0.32384    -0.32118    -0.32046
    -0.31395    -0.31220    -0.30410    -0.30349    -0.30255    -0.30248
    -0.29992    -0.29201    -0.28198    -0.28002    -0.06018    -0.02047
    -0.01988    -0.00345     0.00020     0.00843     0.01665     0.01852
     0.02091     0.02291
 
  Peak memory usage:   1029 Mb
  
  end of program scf
   
 Time(scf)  user:     2812.4  user+sys:     2812.4  wallclock:     4942.4
  
  start of program sole
  
    SCRF                   solvation energy
  iteration          Hartrees            kcal/mol
     0               0.0000000            0.0000
     1              -0.0185160          -11.6190
     2              -0.0197081          -12.3670
  
  solvation energy not yet converged... 
  
  Peak memory usage:    813 Mb
  
  end of program sole
   
 Time(sole)  user:        0.1  user+sys:        0.1  wallclock:        0.3
  
  start of program ch
  
  gridpoints used for charge fit        16585
    out of a possible maximum of        16585
  
   Electrostatic potential fitting constrained to reproduce
     total charge:                yes
     dipole moment:               no 
     traceless quadrupole moment: no 
     traceless octapole moment:   no 
  
  Atomic charges from electrostatic potential: 
   
 Atom       C1           C2           C3           C4           H5      
 Charge   -0.10175     -0.45374      0.14887     -0.00771      0.18022
   
 Atom       C6           C7           C8           C9           H10     
 Charge   -0.39912      0.03050      0.17325      0.01544      0.20977
   
 Atom       C11          C12          C13          C14          C15     
 Charge    0.05385      0.27165     -0.25571     -0.12973     -0.13481
   
 Atom       C16          H17          H18          H19          H20     
 Charge   -0.18229      0.16217      0.14109      0.14575      0.11476
   
 Atom       C21          C22          C23          C24          C25     
 Charge    0.26312      0.01429     -0.10981     -0.22426     -0.05864
   
 Atom       C26          H27          H28          H29          H30     
 Charge   -0.31880      0.14581      0.16208      0.13261      0.17077
   
 Atom       Si31         Si32         C33          C34          C35     
 Charge    0.00928     -0.25102     -0.16416     -0.14549     -0.00032
   
 Atom       C36          C37          C38          H39          H40     
 Charge   -0.04380     -0.18861     -0.10185      0.13786      0.12950
   
 Atom       H41          H42          H43          C44          C45     
 Charge    0.05415      0.14292      0.12871     -0.14670     -0.17083
   
 Atom       C46          C47          C48          C49          H50     
 Charge   -0.14423      0.15355     -0.21076     -0.12070      0.14214
   
 Atom       H51          H52          H53          H54          C55     
 Charge    0.14533      0.12681      0.10756      0.14251     -0.24276
   
 Atom       C56          C57          C58          C59          C60     
 Charge   -0.10439     -0.12007      0.15304     -0.29807      0.01901
   
 Atom       H61          H62          H63          H64          H65     
 Charge    0.14699      0.13129      0.10602      0.13684      0.07181
   
 Atom       C66          C67          C68          C69          C70     
 Charge   -0.22334     -0.13207     -0.18605      0.22730     -0.26895
   
 Atom       C71          H72          H73          H74          H75     
 Charge    0.00854      0.15921      0.14044      0.12011      0.17737
   
 Atom       H76          C77          C78          C79          C80     
 Charge    0.07319     -0.16939     -0.07076     -0.25630      0.15866
   
 Atom       C81          C82          H83          H84          H85     
 Charge   -0.13582     -0.13079      0.13726      0.12181      0.17575
   
 Atom       H86          H87          C88          C89          C90     
 Charge    0.08903      0.12552     -0.12491     -0.17762     -0.11728
   
 Atom       C91          C92          C93          H94          H95     
 Charge    0.14666     -0.18010     -0.14946      0.13877      0.14860
   
 Atom       H96          H97          H98          O99          O100    
 Charge    0.11335      0.13883      0.13985     -0.20936     -0.29552
   
 Atom       P101         O102         N103         H104         C105    
 Charge    1.17059     -0.69262     -0.35390      0.39436     -0.17504
   
 Atom       C106         C107         C108         C109         C110    
 Charge   -0.08135     -0.15833     -0.23276      0.39066     -0.19792
   
 Atom       C111         H112         H113         H114         H115    
 Charge   -0.19725      0.13680      0.13467      0.16505      0.17622
   
 Atom       H116         H117         N118         S119         O120    
 Charge    0.16067      0.15733     -0.63679      0.69651     -0.43993
   
 Atom       O121         C122         F123         F124         F125    
 Charge   -0.48899      0.38756     -0.10647     -0.10829     -0.13951
   
 Atom       C126         C127         C128         C129         N130    
 Charge    0.17996     -0.09090     -0.33148      0.05956     -0.25949
   
 Atom       H131         H132         H133         H134         H135    
 Charge    0.01073      0.17632      0.21367      0.16176      0.32855
   
 Atom       S136         O137         O138         C139         C140    
 Charge    0.58008     -0.42847     -0.43079     -0.50104      0.47182
   
 Atom       N141         C142         C143         C144         H145    
 Charge   -0.66814      0.64712     -0.54035      0.24570      0.21857
   
 Atom       H146         H147         H148    
 Charge    0.04603      0.23223      0.11355
  
  sum of atomic charges:    -0.000000
   
 RMS Error   9.90E-04 hartrees
 
  Peak memory usage:    816 Mb
  
  end of program ch
   
 Time(ch)  user:       19.2  user+sys:       19.2  wallclock:       33.8
  
  start of program post
  
  Writing input files for PBF
  Peak memory usage:    759 Mb
  
  end of program post
   
 Time(post)  user:        0.9  user+sys:        0.9  wallclock:        2.1

  start of program pbf

Pbf Version 4.10

Molecular surface area:      830.22367   [A2]
Reaction field energy:       -20.54131   [kT]
  Peak memory usage: 722 Mb

  end of program pbf

 Time(pbf)  user:       16.3  user+sys:       16.4  wallclock:       25.6
  
  start of program solv
  
   number of surface charges from PBF   13300
   sum of surface charges     -0.00038
   
  nuclear repulsion energy.......   20853.554803987 hartrees
  Peak memory usage:    894 Mb
  
  end of program solv
   
 Time(solv)  user:       37.2  user+sys:       37.2  wallclock:       58.5
  
  start of program scf
  
 Energy computed with NOPS off.
  
       i  u  d  i  g                   
       t  p  i  c  r                                 RMS    maximum
       e  d  i  u  i                       energy  density   DIIS  
       r  t  s  t  d       total energy    change  change    error 
  
etot    1  N  N  1  U   -5575.58426902644           5.6E-06  1.3E-04
etot    2  N  N  1  U   -5575.58425274067 -1.6E-05  0.0E+00  0.0E+00
  
  
 Energy components, in hartrees:
   (A)  Total zero-electron terms....   20856.78385636653
   (B)    Nuclear-nuclear............   20853.55480398740
   (C)    Nuclear-solvent............       3.22905237914
   (E)  Total one-electron terms.....  -49239.58152384293
   (F)    Electron-nuclear...........  -54772.42502938660
   (G)    Electron-solvent...........      -3.27144049414
   (H)    Kinetic....................    5536.11494603780
   (I)  Total two-electron terms.....   22807.21341473573
   (J)    Coulomb....................   23458.49805571008
   (K)    Exchange+Correlation.......    -651.28464097435
   (L)  Electronic energy............  -26432.36810910721  (E+I)
   (N)  Total quantum mech. energy...   -5575.58425274067  (A+L)
   (O)  Gas phase energy.............   -5575.54314184079
   (P)  Solution phase energy........   -5575.56305868317  (Q+R+S)
   (Q)    Total solute energy........   -5575.54186462567  (N-C-G)
   (R)    Total solvent energy.......      -0.02119405750  (C/2+G/2)
   (S)    Solute cavity energy.......       0.00000000000
   (U)  Reorganization energy........       0.00127721512  (Q-O)
   (V)  Solvation energy.............      -0.01991684239  (P-O)
  
 SCFE:  Solution phase energy: DFT(m06-2x)      -5575.56305868317 hartrees
        SCF iterations:   2
  
 
 HOMO energy:    -0.25425
 LUMO energy:    -0.06144
 
  Orbital energies (hartrees): 
   -90.17726   -90.15771   -78.21608   -67.01211   -67.00829   -25.29021
   -25.29015   -25.28907   -19.69564   -19.69447   -19.65643   -19.65240
   -19.63282   -19.62772   -19.61059   -14.82778   -14.81505   -14.79097
   -14.74692   -10.80595   -10.65586   -10.63372   -10.63213   -10.62414
   -10.62073   -10.60452   -10.60176   -10.58724   -10.58684   -10.57800
   -10.57762   -10.57742   -10.57490   -10.57343   -10.56941   -10.56890
   -10.56303   -10.56216   -10.56189   -10.56177   -10.56136   -10.56126
   -10.55938   -10.55731   -10.55654   -10.55587   -10.55556   -10.55461
   -10.55375   -10.55336   -10.55307   -10.55303   -10.55202   -10.55140
   -10.55100   -10.55091   -10.55077   -10.55057   -10.55039   -10.55016
   -10.55015   -10.54976   -10.54948   -10.54932   -10.54923   -10.54904
   -10.54868   -10.54851   -10.54843   -10.54791   -10.54788   -10.54784
   -10.54775   -10.54768   -10.54729   -10.54719   -10.54710   -10.54678
   -10.54552   -10.54373   -10.54130   -10.54093   -10.53971   -10.53904
   -10.53865   -10.53760   -10.53710   -10.53478   -10.53431   -10.53301
   -10.53220   -10.52567    -8.48760    -8.46597    -6.99553    -6.40974
    -6.40878    -6.40816    -6.38787    -6.38746    -6.38734    -5.54389
    -5.53959    -5.11422    -5.11303    -5.11127    -3.85360    -3.85341
    -3.85311    -3.84929    -3.84908    -3.84891    -1.45658    -1.36588
    -1.36460    -1.24778    -1.23706    -1.21811    -1.19417    -1.13470
    -1.11615    -1.10629    -1.09408    -1.08268    -1.06009    -0.99114
    -0.98208    -0.96726    -0.96708    -0.94871    -0.94545    -0.94369
    -0.94208    -0.94159    -0.93303    -0.92305    -0.92183    -0.91220
    -0.89957    -0.89719    -0.89168    -0.87524    -0.85455    -0.84776
    -0.84666    -0.84644    -0.84439    -0.83967    -0.83919    -0.83696
    -0.83596    -0.83428    -0.83392    -0.82935    -0.82856    -0.82827
    -0.82775    -0.82735    -0.82453    -0.82389    -0.82049    -0.80864
    -0.80220    -0.76444    -0.75147    -0.73721    -0.73355    -0.71231
    -0.70870    -0.70681    -0.69963    -0.69689    -0.69192    -0.68963
    -0.68454    -0.68171    -0.68101    -0.67933    -0.67903    -0.67574
    -0.67513    -0.67458    -0.67394    -0.67159    -0.67107    -0.66613
    -0.66606    -0.66244    -0.66139    -0.65985    -0.65525    -0.65477
    -0.65146    -0.64674    -0.64140    -0.62829    -0.61075    -0.61014
    -0.60633    -0.60408    -0.60142    -0.58681    -0.58400    -0.58258
    -0.58109    -0.58074    -0.57627    -0.57565    -0.57375    -0.57034
    -0.56316    -0.56285    -0.56069    -0.55778    -0.55313    -0.54945
    -0.54812    -0.54253    -0.53937    -0.53754    -0.53663    -0.53247
    -0.53037    -0.52902    -0.52727    -0.52543    -0.52166    -0.52095
    -0.51994    -0.51862    -0.51781    -0.51688    -0.51256    -0.51140
    -0.50929    -0.50869    -0.50471    -0.50322    -0.50289    -0.50108
    -0.50072    -0.50040    -0.50019    -0.49777    -0.49609    -0.49467
    -0.49314    -0.49222    -0.49139    -0.48989    -0.48741    -0.48611
    -0.48495    -0.48385    -0.48255    -0.48200    -0.48105    -0.48085
    -0.47992    -0.47314    -0.47258    -0.47038    -0.46695    -0.46204
    -0.45843    -0.45748    -0.45615    -0.45184    -0.45074    -0.44674
    -0.44562    -0.44444    -0.44172    -0.43702    -0.43342    -0.43128
    -0.42748    -0.42719    -0.42662    -0.42545    -0.42298    -0.42177
    -0.42077    -0.41746    -0.41494    -0.41207    -0.40868    -0.40501
    -0.40312    -0.40215    -0.39981    -0.39571    -0.39394    -0.39317
    -0.39142    -0.39128    -0.39081    -0.39057    -0.38824    -0.38506
    -0.38503    -0.38102    -0.37973    -0.37857    -0.37659    -0.37042
    -0.35995    -0.35888    -0.35717    -0.35374    -0.35017    -0.34606
    -0.34567    -0.34506    -0.34343    -0.34191    -0.33868    -0.33666
    -0.33478    -0.32520    -0.31943    -0.31566    -0.30952    -0.30806
    -0.30617    -0.30559    -0.30228    -0.30205    -0.30029    -0.29887
    -0.29711    -0.29473    -0.29156    -0.29140    -0.28795    -0.28750
    -0.28451    -0.28242    -0.27289    -0.25425    -0.06144    -0.02104
    -0.02088    -0.00392    -0.00032     0.00774     0.01618     0.01807
     0.02047     0.02233
 
  Peak memory usage:   1029 Mb
  
  end of program scf
   
 Time(scf)  user:     2847.0  user+sys:     2847.0  wallclock:     4960.3
  
  start of program sole
  
    SCRF                   solvation energy
  iteration          Hartrees            kcal/mol
     0               0.0000000            0.0000
     1              -0.0185160          -11.6190
     2              -0.0197081          -12.3670
     3              -0.0199168          -12.4980
  
  solvation energy not yet converged... 
  
  Peak memory usage:    813 Mb
  
  end of program sole
   
 Time(sole)  user:        0.2  user+sys:        0.2  wallclock:        0.4
  
  start of program ch
  
  gridpoints used for charge fit        16585
    out of a possible maximum of        16585
  
   Electrostatic potential fitting constrained to reproduce
     total charge:                yes
     dipole moment:               no 
     traceless quadrupole moment: no 
     traceless octapole moment:   no 
  
  Atomic charges from electrostatic potential: 
   
 Atom       C1           C2           C3           C4           H5      
 Charge   -0.10060     -0.45390      0.14919     -0.00740      0.17975
   
 Atom       C6           C7           C8           C9           H10     
 Charge   -0.40073      0.03198      0.17312      0.01657      0.20985
   
 Atom       C11          C12          C13          C14          C15     
 Charge    0.05331      0.27123     -0.25556     -0.13088     -0.13662
   
 Atom       C16          H17          H18          H19          H20     
 Charge   -0.18074      0.16218      0.14139      0.14606      0.11439
   
 Atom       C21          C22          C23          C24          C25     
 Charge    0.26295      0.01501     -0.10883     -0.22560     -0.05937
   
 Atom       C26          H27          H28          H29          H30     
 Charge   -0.31914      0.14550      0.16230      0.13280      0.17085
   
 Atom       Si31         Si32         C33          C34          C35     
 Charge    0.00908     -0.25045     -0.16692     -0.14463     -0.00199
   
 Atom       C36          C37          C38          H39          H40     
 Charge   -0.03983     -0.18869     -0.10236      0.13824      0.12923
   
 Atom       H41          H42          H43          C44          C45     
 Charge    0.05449      0.14290      0.12882     -0.14750     -0.17186
   
 Atom       C46          C47          C48          C49          H50     
 Charge   -0.14395      0.15471     -0.20917     -0.12191      0.14233
   
 Atom       H51          H52          H53          H54          C55     
 Charge    0.14552      0.12653      0.10700      0.14268     -0.24318
   
 Atom       C56          C57          C58          C59          C60     
 Charge   -0.10600     -0.12157      0.15596     -0.29897      0.02011
   
 Atom       H61          H62          H63          H64          H65     
 Charge    0.14689      0.13141      0.10592      0.13780      0.07142
   
 Atom       C66          C67          C68          C69          C70     
 Charge   -0.22403     -0.13281     -0.18575      0.22696     -0.26795
   
 Atom       C71          H72          H73          H74          H75     
 Charge    0.00848      0.15940      0.14059      0.11974      0.17764
   
 Atom       H76          C77          C78          C79          C80     
 Charge    0.07305     -0.17047     -0.07020     -0.25551      0.15926
   
 Atom       C81          C82          H83          H84          H85     
 Charge   -0.13458     -0.13282      0.13735      0.12170      0.17565
   
 Atom       H86          H87          C88          C89          C90     
 Charge    0.08859      0.12584     -0.12555     -0.17812     -0.11716
   
 Atom       C91          C92          C93          H94          H95     
 Charge    0.14768     -0.17952     -0.14993      0.13890      0.14870
   
 Atom       H96          H97          H98          O99          O100    
 Charge    0.11302      0.13871      0.13987     -0.20829     -0.29576
   
 Atom       P101         O102         N103         H104         C105    
 Charge    1.17095     -0.69325     -0.34720      0.39280     -0.17607
   
 Atom       C106         C107         C108         C109         C110    
 Charge   -0.08348     -0.16048     -0.23206      0.39444     -0.19545
   
 Atom       C111         H112         H113         H114         H115    
 Charge   -0.19954      0.13729      0.13469      0.16478      0.17568
   
 Atom       H116         H117         N118         S119         O120    
 Charge    0.16098      0.15849     -0.63637      0.69637     -0.44084
   
 Atom       O121         C122         F123         F124         F125    
 Charge   -0.48838      0.38686     -0.10625     -0.10799     -0.13980
   
 Atom       C126         C127         C128         C129         N130    
 Charge    0.17888     -0.08880     -0.33521      0.05369     -0.25776
   
 Atom       H131         H132         H133         H134         H135    
 Charge    0.01238      0.17632      0.21471      0.16276      0.32865
   
 Atom       S136         O137         O138         C139         C140    
 Charge    0.58322     -0.43033     -0.43350     -0.50387      0.47171
   
 Atom       N141         C142         C143         C144         H145    
 Charge   -0.66586      0.64953     -0.54048      0.24302      0.21912
   
 Atom       H146         H147         H148    
 Charge    0.04580      0.23198      0.11414
  
  sum of atomic charges:    -0.000000
   
 RMS Error   9.93E-04 hartrees
 
  Peak memory usage:    816 Mb
  
  end of program ch
   
 Time(ch)  user:       18.8  user+sys:       18.8  wallclock:       29.1
  
  start of program post
  
  Writing input files for PBF
  Peak memory usage:    759 Mb
  
  end of program post
   
 Time(post)  user:        0.8  user+sys:        0.8  wallclock:        1.8

  start of program pbf

Pbf Version 4.10

Molecular surface area:      830.22367   [A2]
Reaction field energy:       -20.42807   [kT]
  Peak memory usage: 722 Mb

  end of program pbf

 Time(pbf)  user:       15.5  user+sys:       15.6  wallclock:       24.2
  
  start of program solv
  
   number of surface charges from PBF   13300
   sum of surface charges     -0.00037
   
  nuclear repulsion energy.......   20853.554803987 hartrees
  Peak memory usage:    894 Mb
  
  end of program solv
   
 Time(solv)  user:       36.3  user+sys:       36.3  wallclock:       53.0
  
  start of program scf
  
 Energy computed with NOPS off.
  
       i  u  d  i  g                   
       t  p  i  c  r                                 RMS    maximum
       e  d  i  u  i                       energy  density   DIIS  
       r  t  s  t  d       total energy    change  change    error 
  
etot    1  N  N  1  U   -5575.58415006468           8.8E-06  2.2E-04
etot    2  N  Y  1  U   -5575.58409484739 -5.5E-05  5.7E-06  3.9E-04
etot    3  N  Y  1  U   -5575.58417361156  7.9E-05  2.0E-07  1.1E-05
etot    4  N  N  1  U   -5575.58417365654  4.5E-08  0.0E+00  0.0E+00
  
  
 Energy components, in hartrees:
   (A)  Total zero-electron terms....   20856.75200691491
   (B)    Nuclear-nuclear............   20853.55480398740
   (C)    Nuclear-solvent............       3.19720292751
   (E)  Total one-electron terms.....  -49239.80278754636
   (F)    Electron-nuclear...........  -54772.68471013210
   (G)    Electron-solvent...........      -3.23955707051
   (H)    Kinetic....................    5536.12147965625
   (I)  Total two-electron terms.....   22807.46660697491
   (J)    Coulomb....................   23458.75176836429
   (K)    Exchange+Correlation.......    -651.28516138938
   (L)  Electronic energy............  -26432.33618057145  (E+I)
   (N)  Total quantum mech. energy...   -5575.58417365654  (A+L)
   (O)  Gas phase energy.............   -5575.54314184079
   (P)  Solution phase energy........   -5575.56299658504  (Q+R+S)
   (Q)    Total solute energy........   -5575.54181951354  (N-C-G)
   (R)    Total solvent energy.......      -0.02117707150  (C/2+G/2)
   (S)    Solute cavity energy.......       0.00000000000
   (U)  Reorganization energy........       0.00132232725  (Q-O)
   (V)  Solvation energy.............      -0.01985474425  (P-O)
  
 SCFE:  Solution phase energy: DFT(m06-2x)      -5575.56299658504 hartrees
        SCF iterations:   4
  
 
 HOMO energy:    -0.25390
 LUMO energy:    -0.06067
 
  Orbital energies (hartrees): 
   -90.17544   -90.15705   -78.21512   -67.01148   -67.00724   -25.29025
   -25.28947   -25.28888   -19.69432   -19.69385   -19.65621   -19.65313
   -19.63161   -19.62803   -19.61009   -14.82710   -14.81167   -14.78858
   -14.74578   -10.80561   -10.65281   -10.63165   -10.63100   -10.62321
   -10.62254   -10.60430   -10.60027   -10.58780   -10.58704   -10.57865
   -10.57644   -10.57590   -10.57434   -10.57310   -10.56885   -10.56793
   -10.56438   -10.56225   -10.56182   -10.56120   -10.56117   -10.56057
   -10.56047   -10.55715   -10.55707   -10.55630   -10.55572   -10.55468
   -10.55389   -10.55344   -10.55321   -10.55282   -10.55185   -10.55147
   -10.55105   -10.55075   -10.55072   -10.55072   -10.55056   -10.55030
   -10.55029   -10.55010   -10.54956   -10.54929   -10.54914   -10.54902
   -10.54873   -10.54841   -10.54836   -10.54802   -10.54781   -10.54763
   -10.54747   -10.54735   -10.54725   -10.54715   -10.54672   -10.54625
   -10.54561   -10.54297   -10.54121   -10.54006   -10.53945   -10.53806
   -10.53774   -10.53730   -10.53644   -10.53383   -10.53380   -10.53214
   -10.53071   -10.52441    -8.48589    -8.46532    -6.99458    -6.40802
    -6.40706    -6.40643    -6.38722    -6.38681    -6.38668    -5.54327
    -5.53856    -5.11327    -5.11208    -5.11032    -3.85298    -3.85279
    -3.85250    -3.84825    -3.84804    -3.84788    -1.45627    -1.36569
    -1.36415    -1.24689    -1.23619    -1.21751    -1.19325    -1.13414
    -1.11593    -1.10571    -1.09338    -1.08148    -1.05792    -0.99032
    -0.98164    -0.96704    -0.96668    -0.94856    -0.94520    -0.94353
    -0.94191    -0.94132    -0.93243    -0.92303    -0.92161    -0.91196
    -0.89898    -0.89700    -0.89131    -0.87458    -0.85430    -0.84739
    -0.84648    -0.84625    -0.84421    -0.83938    -0.83900    -0.83681
    -0.83576    -0.83408    -0.83362    -0.82906    -0.82835    -0.82807
    -0.82741    -0.82693    -0.82430    -0.82332    -0.81997    -0.80773
    -0.80190    -0.76387    -0.75071    -0.73679    -0.73307    -0.71158
    -0.70818    -0.70646    -0.69929    -0.69653    -0.69165    -0.68933
    -0.68426    -0.68139    -0.68082    -0.67910    -0.67871    -0.67549
    -0.67493    -0.67438    -0.67361    -0.67138    -0.67082    -0.66589
    -0.66571    -0.66221    -0.66097    -0.65937    -0.65481    -0.65416
    -0.65095    -0.64631    -0.64087    -0.62785    -0.61047    -0.60940
    -0.60577    -0.60370    -0.60105    -0.58614    -0.58381    -0.58241
    -0.58091    -0.58053    -0.57581    -0.57543    -0.57327    -0.56992
    -0.56271    -0.56243    -0.56040    -0.55743    -0.55262    -0.54900
    -0.54755    -0.54208    -0.53903    -0.53710    -0.53626    -0.53210
    -0.53002    -0.52867    -0.52692    -0.52506    -0.52151    -0.52058
    -0.51969    -0.51833    -0.51761    -0.51652    -0.51226    -0.51100
    -0.50896    -0.50837    -0.50449    -0.50294    -0.50272    -0.50079
    -0.50042    -0.50004    -0.49980    -0.49756    -0.49580    -0.49441
    -0.49287    -0.49166    -0.49110    -0.48936    -0.48730    -0.48599
    -0.48441    -0.48372    -0.48233    -0.48176    -0.48075    -0.48054
    -0.47966    -0.47270    -0.47234    -0.47037    -0.46650    -0.46150
    -0.45837    -0.45729    -0.45585    -0.45164    -0.45047    -0.44637
    -0.44511    -0.44421    -0.44129    -0.43656    -0.43317    -0.43100
    -0.42697    -0.42693    -0.42631    -0.42520    -0.42268    -0.42147
    -0.42040    -0.41715    -0.41441    -0.41165    -0.40829    -0.40444
    -0.40268    -0.40188    -0.39947    -0.39558    -0.39383    -0.39300
    -0.39119    -0.39105    -0.39038    -0.39011    -0.38787    -0.38465
    -0.38448    -0.38041    -0.37919    -0.37800    -0.37620    -0.36992
    -0.35959    -0.35841    -0.35665    -0.35320    -0.34963    -0.34569
    -0.34512    -0.34411    -0.34292    -0.34142    -0.33823    -0.33608
    -0.33459    -0.32491    -0.31873    -0.31496    -0.30933    -0.30791
    -0.30589    -0.30546    -0.30210    -0.30186    -0.30008    -0.29868
    -0.29677    -0.29416    -0.29116    -0.29089    -0.28740    -0.28712
    -0.28418    -0.28183    -0.27265    -0.25390    -0.06067    -0.02072
    -0.02027    -0.00365     0.00000     0.00815     0.01647     0.01834
     0.02074     0.02267
 
  Peak memory usage:   1029 Mb
  
  end of program scf
   
 Time(scf)  user:     8254.6  user+sys:     8254.6  wallclock:    12147.2
  
  start of program sole
  
    SCRF                   solvation energy
  iteration          Hartrees            kcal/mol
     0               0.0000000            0.0000
     1              -0.0185160          -11.6190
     2              -0.0197081          -12.3670
     3              -0.0199168          -12.4980
     4              -0.0198547          -12.4590
  
  stopping: solvation energy converged
  
  iterations:   4    sfinal:    -12.4590 kcal/mol
  
  Peak memory usage:    813 Mb
  
  end of program sole
   
 Time(sole)  user:        0.1  user+sys:        0.1  wallclock:        0.2
  
  start of program post
  
  Writing input files for PBF
  Peak memory usage:    759 Mb
  
  end of program post
   
 Time(post)  user:        0.8  user+sys:        0.8  wallclock:        1.1

 Total cpu seconds     user:   60640.087   user+sys:   60640.087
  
 Total elapsed time:    87062 seconds

Job Type-II-Z-sulfonyl-bind-2-chkp-unrestrained-2.1-SPE completed on tethys at Fri Mar 10 12:07:02 2017
