[running at reduced cpu priority]
Job Toru-NTf-Sulfonyl-5-chkp-unrestrained-uff-acc-sol-fine-grid_1_co started on tethys at Tue Feb 14 12:15:43 2017
jobid: tethys-0-58a2f4ef 
Jaguar version 8.4, release  16
Molecular Point Group: C1      
Point Group used: C1
pre (input checking) done.
onee (1-electron integrals) done.
Job Toru-NTf-Sulfonyl-5-chkp-unrestrained-uff-acc-sol-fine-grid_1_co completed on tethys at Tue Feb 14 12:16:23 2017
