Job Toru-SiPh3-Type-II-Z-2-chkp-scan-unrestrained-uff-acc-sol started on tethys at Wed Feb 15 16:36:21 2017
jobid: tethys-0-58a48383

  +--------------------------------------------------------------------+
  |  Jaguar version 8.4, release  16                                   |
  |                                                                    |
  |  Copyright Schrodinger, Inc.                                       |
  |  All Rights Reserved.                                              |
  |                                                                    |
  |  The following have contributed to Jaguar (listed alphabetically): |
  |  Mike Beachy, Art Bochevarov, Dale Braden, Yixiang Cao,            |
  |  Chris Cortis, Rich Friesner, Bill Goddard, Hod Greeley,           |
  |  Tom Hughes, Jean-Marc Langlois, Daniel Mainz, Rob Murphy,         |
  |  Dean Philipp, Tom Pollard, Murco Ringnalda.                       |
  |                                                                    |
  |  Use of this program should be acknowledged in publications as:    |
  |                                                                    |
  |  Jaguar, version 8.4, Schrodinger, Inc., New York, NY, 2013.       |
  |                                                                    |
  |  A. D. Bochevarov, E. Harder, T. F. Hughes, J. R. Greenwood,       |
  |  D. A. Braden, D. M. Philipp, D. Rinaldo, M. D. Halls,             |
  |  J. Zhang, R. A. Friesner, "Jaguar: A High-Performance Quantum     |
  |  Chemistry Software Program with Strengths in Life and Materials   |
  |  Sciences", Int. J. Quantum Chem., 2013, 113(18), 2110-2142.       |
  +--------------------------------------------------------------------+
  
  start of program pre
  
  Job name: Toru-SiPh3-Type-II-Z-2-chkp-scan-unrestrained-uff-acc-sol
  Executables used: /usr/local/shared/schrodinger/current/jaguar-v84016/bin/Linux-x86_64
  Temporary files : /home/ab2144/.schrodinger/tmp/Toru-SiPh3-Type-II-Z-2-chkp-scan-unrestrained-uff-acc-sol
  Maestro file (input):  Toru-SiPh3-Type-II-Z-2-chkp-scan-unrestrained-uff-acc-sol.mae
  Maestro file (output): Toru-SiPh3-Type-II-Z-2-chkp-scan-unrestrained-uff-acc-sol.01.mae
  
  
  basis set:             6-31g**         
  net molecular charge:    0
  multiplicity:            1
  
  keygrid settings 
    wispc.....   7.500E-01
    ldens.....   0
    denspc....   7.500E-01
  
   grid     daf set  nls  grid set  Q type
  ------    -------  ---  --------  ------
  coarse       1      1       1        1
  medium       2      2       2        1
  fine         3      2       3        0
  ultrafine    4      2       4        1
  charge       0      1      -1        1
  gradient     5      2       4        1
  density      0      1       0        0
  DFT-fine     0      1     -13        0
  DFT-med.     0      1     -13        0
  DFT-grad     0      1     -13        0
  DFT-der2     0      1       0        0
  DFT-cphf     0      1       0        0
  LMP2-enrg    4      2       4        1
  LMP2-grad    5      2       2        1
  DFT-cphf2    0      1       0        0
  PBF-dens     0      1       0        0
  plotting     0      1       0        0
  
  idftgrdm  100
  ndftgrdm   50    0    0
  idftgrdf  111
  ndftgrdf   85    0    0
  idftgrdg  111
  ndftgrdg   80    3    0
  idftgrdu  433
  ndftgrdu  105    0    0
  idftgrdd  433
  ndftgrdd  105    0    0
  idftgrdc  433
  ndftgrdc   26    0    0
  idftgrdp  433
  ndftgrdp   18    0    0
  
  number of basis functions....         1571
  
 Input geometry:
                                   angstroms
  atom               x                 y                 z
  C1            1.4717000000      5.0909000000     -1.1528000000 
  C2            0.2300000000      4.3204000000     -0.8585000000 
  C3            1.4464000000      6.4279000000     -1.1943000000 
  C4           -0.9056000000      4.9974000000     -0.5825000000 
  C5            0.2253000000      2.8247000000     -0.8159000000 
  C6           -0.9243000000      6.4780000000     -0.6369000000 
  C7           -2.1246000000      4.2687000000     -0.1923000000 
  C8            0.1901000000      7.1542000000     -0.9334000000 
  C9           -0.8620000000      2.1730000000     -0.3318000000 
  C10           1.4288000000      2.0637000000     -1.2399000000 
  C11          -2.1161000000      2.9335000000     -0.0669000000 
  O12          -0.9032000000      0.7998000000     -0.2815000000 
  Si13         -3.6592000000      2.0552000000      0.5146000000 
  C14           1.9660000000      2.1677000000     -2.4765000000 
  C15           2.1165000000      1.2483000000     -0.2081000000 
  C16           3.3015000000      1.5757000000     -2.7440000000 
  C17           1.2935000000      2.8765000000     -3.5934000000 
  C18           3.9729000000      0.9548000000     -1.7648000000 
  C19           3.8904000000      1.7371000000     -4.0878000000 
  C20           3.3736000000      0.8065000000     -0.4188000000 
  Si21          4.4146000000     -0.0253000000      0.8923000000 
  O22           1.4516000000      0.9771000000      0.9568000000 
  C23           1.8921000000      2.9878000000     -4.7853000000 
  C24           3.2280000000      2.4050000000     -5.0389000000 
  P25           0.1466000000      0.0060000000      0.7233000000 
  O26          -0.4631000000     -0.2290000000      2.0834000000 
  O27           0.5528000000     -1.2195000000     -0.0775000000 
  C28          -4.2759000000      0.8096000000     -0.7242000000 
  C29          -3.2397000000      1.2793000000      2.1501000000 
  C30          -5.0536000000      3.2651000000      0.7334000000 
  C31           5.9566000000      0.9672000000      1.1996000000 
  C32           3.5796000000     -0.1371000000      2.5525000000 
  C33           4.8386000000     -1.7102000000      0.2271000000 
  C34          -3.6104000000      0.5529000000     -1.8638000000 
  C35          -5.5805000000      0.1475000000     -0.4811000000 
  C36          -3.5866000000      0.0157000000      2.4433000000 
  C37          -2.5022000000      2.0845000000      3.1539000000 
  C38          -5.5870000000      3.5127000000      1.9417000000 
  C39          -5.6059000000      3.9466000000     -0.4620000000 
  C40           6.8649000000      0.5287000000      2.0876000000 
  C41           6.1718000000      2.2693000000      0.5210000000 
  C42           3.2260000000      0.9862000000      3.2008000000 
  C43           3.3329000000     -1.4517000000      3.1914000000 
  C44           3.8617000000     -2.5975000000     -0.0219000000 
  C45           6.2447000000     -2.0744000000     -0.0762000000 
  C46          -4.1441000000     -0.4279000000     -2.8320000000 
  C47          -5.3132000000     -1.0345000000     -2.5980000000 
  C48          -6.0741000000     -0.7205000000     -1.3727000000 
  C49          -3.2417000000     -0.5633000000      3.7589000000 
  C50          -2.5675000000      0.1643000000      4.6570000000 
  C51          -2.1786000000      1.5529000000      4.3390000000 
  C52          -6.7040000000      4.4711000000      2.0774000000 
  C53          -7.1935000000      5.0894000000      0.9961000000 
  C54          -6.6185000000      4.8129000000     -0.3359000000 
  C55           8.0851000000      1.3172000000      2.3565000000 
  C56           8.2825000000      2.4819000000      1.7283000000 
  C57           7.2767000000      2.9833000000      0.7703000000 
  C58           2.5208000000      0.9078000000      4.4969000000 
  C59           2.2583000000     -0.2839000000      5.0455000000 
  C60           2.6953000000     -1.5202000000      4.3667000000 
  C61           4.1876000000     -3.9403000000     -0.5437000000 
  C62           5.4586000000     -4.2691000000     -0.7996000000 
  C63           6.5362000000     -3.2880000000     -0.5611000000 
  C64          -5.8622000000     -4.2069000000     -0.0792000000 
  C65          -4.6859000000     -3.4907000000      0.1355000000 
  C66          -3.4301000000     -4.0943000000     -0.0188000000 
  C67          -3.3781000000     -5.4559000000     -0.3565000000 
  C68          -4.5518000000     -6.1728000000     -0.5683000000 
  C69          -5.7971000000     -5.5523000000     -0.4363000000 
  C70          -2.2391000000     -3.2411000000      0.2646000000 
  N71          -1.0856000000     -3.1952000000     -0.4767000000 
  S72          -0.5172000000     -4.1099000000     -1.7928000000 
  O73           0.6264000000     -4.9253000000     -1.3684000000 
  O74          -1.6332000000     -4.7417000000     -2.4950000000 
  C75           0.1392000000     -2.7372000000     -2.7909000000 
  C76           1.5045000000     -2.6895000000     -3.0523000000 
  C77           1.9521000000     -1.6390000000     -3.8526000000 
  C78           1.0244000000     -0.7160000000     -4.3298000000 
  C79          -0.3201000000     -0.8668000000     -3.9817000000 
  N80          -0.7658000000     -1.8724000000     -3.2244000000 
  N81          -0.6270000000     -2.8642000000      2.3302000000 
  C82           0.4647000000     -3.5897000000      2.1170000000 
  C83           0.1234000000     -4.9609000000      1.9843000000 
  C84          -1.2474000000     -5.0318000000      2.0762000000 
  C85          -1.7522000000     -3.6888000000      2.1462000000 
  H86           2.4130000000      4.5852000000     -1.3194000000 
  H87           2.3517000000      6.9816000000     -1.4076000000 
  H88          -1.8405000000      7.0187000000     -0.4342000000 
  H89          -3.0142000000      4.8420000000      0.0276000000 
  H90           0.1759000000      8.2358000000     -0.9711000000 
  H91           0.3050000000      3.2989000000     -3.4666000000 
  H92           4.9600000000      0.5496000000     -1.9557000000 
  H93           4.8652000000      1.3202000000     -4.3109000000 
  H94           1.3848000000      3.5052000000     -5.5895000000 
  H95           3.6724000000      2.5173000000     -6.0194000000 
  H96          -0.4389000000     -2.3475000000     -0.3039000000 
  H97          -2.6887000000      1.0615000000     -2.1044000000 
  H98          -6.1435000000      0.3682000000      0.4173000000 
  H99          -4.1225000000     -0.5941000000      1.7343000000 
  H100         -2.2166000000      3.1048000000      2.9300000000 
  H101         -5.2166000000      3.0208000000      2.8304000000 
  H102         -5.1897000000      3.7477000000     -1.4418000000 
  H103          6.7189000000     -0.4074000000      2.6128000000 
  H104          5.4365000000      2.6621000000     -0.1671000000 
  H105          3.4194000000      1.9598000000      2.7670000000 
  H106          3.6714000000     -2.3641000000      2.7215000000 
  H107          2.8284000000     -2.3487000000      0.1680000000 
  H108          7.0442000000     -1.3631000000      0.0760000000 
  H109         -3.5894000000     -0.6499000000     -3.7342000000 
  H110         -5.7058000000     -1.7518000000     -3.3069000000 
  H111         -7.0258000000     -1.2030000000     -1.1918000000 
  H112         -3.5361000000     -1.5770000000      3.9948000000 
  H113         -2.3101000000     -0.2607000000      5.6184000000 
  H114         -1.6344000000      2.1396000000      5.0676000000 
  H115         -7.1254000000      4.6706000000      3.0541000000 
  H116         -8.0116000000      5.7911000000      1.0946000000 
  H117         -7.0190000000      5.3115000000     -1.2090000000 
  H118          8.8179000000      0.9501000000      3.0634000000 
  H119          9.1752000000      3.0615000000      1.9249000000 
  H120          7.4316000000      3.9341000000      0.2769000000 
  H121          2.2090000000      1.8162000000      4.9957000000 
  H122          1.7364000000     -0.3440000000      5.9918000000 
  H123          2.5085000000     -2.4815000000      4.8277000000 
  H124          3.3959000000     -4.6574000000     -0.7160000000 
  H125          5.6995000000     -5.2519000000     -1.1834000000 
  H126          7.5619000000     -3.5516000000     -0.7845000000 
  H127         -6.8220000000     -3.7125000000      0.0339000000 
  H128         -4.7399000000     -2.4466000000      0.4209000000 
  H129         -2.4252000000     -5.9577000000     -0.4633000000 
  H130         -4.4934000000     -7.2221000000     -0.8403000000 
  H131         -6.7084000000     -6.1183000000     -0.6046000000 
  H132         -2.5285000000     -2.2300000000      0.5494000000 
  H133          2.1683000000     -3.4400000000     -2.6444000000 
  H134          3.0060000000     -1.5439000000     -4.0956000000 
  H135          1.3294000000      0.1071000000     -4.9659000000 
  H136         -1.0666000000     -0.1557000000     -4.3267000000 
  H137         -0.6175000000     -1.7971000000      2.3288000000 
  H138          1.4317000000     -3.1214000000      2.0313000000 
  H139          0.8224000000     -5.7653000000      1.8096000000 
  H140         -1.8656000000     -5.9149000000      2.0061000000 
  H141         -2.6801000000     -3.4121000000      2.6309000000 
   
  principal moments of inertia:
        amu*angstrom^2:    17296.31609    22480.20296    28046.24726
                g*cm^2: 2.87212050E-36 3.73292506E-36 4.65718835E-36
   
  rotational constants:
               cm^(-1):      0.00097464      0.00074989      0.00060107
                   GHz:      0.02921888      0.02248107      0.01801949
   
  Molecular weight:    1177.32 amu
   
  Stoichiometry: Si2C72PN3H56SO6
  Molecular Point Group: C1      
  Point Group used: C1
  
  nuclear repulsion energy.......   17416.989350253 hartrees
 
 Non-default options chosen:
   SCF calculation type: DFT(m06-2x)                 
   DFT=M06-2X
   Solvation energy will be computed using PBF
     -solute cavity energy will not be included
     -surface area terms will not be included
   Highest accuracy cutoffs used in SCF
   Solvent: other                                                           
   Internal dielectric constant:    1.000
   Continuum dielectric constant:   2.380
   Solvent probe molecule radius:   2.760
  
 Temporary integer options set:
     73=  2
  
  atom       vdw   vdw2    cov     mass  grid  daf  charge   basis
  C1        1.949  1.900  0.770   12.000    Y    Y      Y    6-31g**
  C2        1.949  1.900  0.770   12.000    Y    Y      Y    6-31g**
  C3        1.949  1.900  0.770   12.000    Y    Y      Y    6-31g**
  C4        1.949  1.900  0.770   12.000    Y    Y      Y    6-31g**
  C5        1.949  1.900  0.770   12.000    Y    Y      Y    6-31g**
  C6        1.949  1.900  0.770   12.000    Y    Y      Y    6-31g**
  C7        1.949  1.900  0.770   12.000    Y    Y      Y    6-31g**
  C8        1.949  1.900  0.770   12.000    Y    Y      Y    6-31g**
  C9        1.949  1.900  0.770   12.000    Y    Y      Y    6-31g**
  C10       1.949  1.900  0.770   12.000    Y    Y      Y    6-31g**
  C11       1.949  1.900  0.770   12.000    Y    Y      Y    6-31g**
  O12       1.702  1.600  0.730   15.995    Y    Y      Y    6-31g**
  Si13      2.217  2.147  1.110   27.977    Y    Y      Y    6-31g**
  C14       1.949  1.900  0.770   12.000    Y    Y      Y    6-31g**
  C15       1.949  1.900  0.770   12.000    Y    Y      Y    6-31g**
  C16       1.949  1.900  0.770   12.000    Y    Y      Y    6-31g**
  C17       1.949  1.900  0.770   12.000    Y    Y      Y    6-31g**
  C18       1.949  1.900  0.770   12.000    Y    Y      Y    6-31g**
  C19       1.949  1.900  0.770   12.000    Y    Y      Y    6-31g**
  C20       1.949  1.900  0.770   12.000    Y    Y      Y    6-31g**
  Si21      2.217  2.147  1.110   27.977    Y    Y      Y    6-31g**
  O22       1.702  1.600  0.730   15.995    Y    Y      Y    6-31g**
  C23       1.949  1.900  0.770   12.000    Y    Y      Y    6-31g**
  C24       1.949  1.900  0.770   12.000    Y    Y      Y    6-31g**
  P25       2.147  2.074  1.060   30.974    Y    Y      Y    6-31g**
  O26       1.702  1.600  0.730   15.995    Y    Y      Y    6-31g**
  O27       1.702  1.600  0.730   15.995    Y    Y      Y    6-31g**
  C28       1.949  1.900  0.770   12.000    Y    Y      Y    6-31g**
  C29       1.949  1.900  0.770   12.000    Y    Y      Y    6-31g**
  C30       1.949  1.900  0.770   12.000    Y    Y      Y    6-31g**
  C31       1.949  1.900  0.770   12.000    Y    Y      Y    6-31g**
  C32       1.949  1.900  0.770   12.000    Y    Y      Y    6-31g**
  C33       1.949  1.900  0.770   12.000    Y    Y      Y    6-31g**
  C34       1.949  1.900  0.770   12.000    Y    Y      Y    6-31g**
  C35       1.949  1.900  0.770   12.000    Y    Y      Y    6-31g**
  C36       1.949  1.900  0.770   12.000    Y    Y      Y    6-31g**
  C37       1.949  1.900  0.770   12.000    Y    Y      Y    6-31g**
  C38       1.949  1.900  0.770   12.000    Y    Y      Y    6-31g**
  C39       1.949  1.900  0.770   12.000    Y    Y      Y    6-31g**
  C40       1.949  1.900  0.770   12.000    Y    Y      Y    6-31g**
  C41       1.949  1.900  0.770   12.000    Y    Y      Y    6-31g**
  C42       1.949  1.900  0.770   12.000    Y    Y      Y    6-31g**
  C43       1.949  1.900  0.770   12.000    Y    Y      Y    6-31g**
  C44       1.949  1.900  0.770   12.000    Y    Y      Y    6-31g**
  C45       1.949  1.900  0.770   12.000    Y    Y      Y    6-31g**
  C46       1.949  1.900  0.770   12.000    Y    Y      Y    6-31g**
  C47       1.949  1.900  0.770   12.000    Y    Y      Y    6-31g**
  C48       1.949  1.900  0.770   12.000    Y    Y      Y    6-31g**
  C49       1.949  1.900  0.770   12.000    Y    Y      Y    6-31g**
  C50       1.949  1.900  0.770   12.000    Y    Y      Y    6-31g**
  C51       1.949  1.900  0.770   12.000    Y    Y      Y    6-31g**
  C52       1.949  1.900  0.770   12.000    Y    Y      Y    6-31g**
  C53       1.949  1.900  0.770   12.000    Y    Y      Y    6-31g**
  C54       1.949  1.900  0.770   12.000    Y    Y      Y    6-31g**
  C55       1.949  1.900  0.770   12.000    Y    Y      Y    6-31g**
  C56       1.949  1.900  0.770   12.000    Y    Y      Y    6-31g**
  C57       1.949  1.900  0.770   12.000    Y    Y      Y    6-31g**
  C58       1.949  1.900  0.770   12.000    Y    Y      Y    6-31g**
  C59       1.949  1.900  0.770   12.000    Y    Y      Y    6-31g**
  C60       1.949  1.900  0.770   12.000    Y    Y      Y    6-31g**
  C61       1.949  1.900  0.770   12.000    Y    Y      Y    6-31g**
  C62       1.949  1.900  0.770   12.000    Y    Y      Y    6-31g**
  C63       1.949  1.900  0.770   12.000    Y    Y      Y    6-31g**
  C64       1.949  1.900  0.770   12.000    Y    Y      Y    6-31g**
  C65       1.949  1.900  0.770   12.000    Y    Y      Y    6-31g**
  C66       1.949  1.900  0.770   12.000    Y    Y      Y    6-31g**
  C67       1.949  1.900  0.770   12.000    Y    Y      Y    6-31g**
  C68       1.949  1.900  0.770   12.000    Y    Y      Y    6-31g**
  C69       1.949  1.900  0.770   12.000    Y    Y      Y    6-31g**
  C70       1.949  1.900  0.770   12.000    Y    Y      Y    6-31g**
  N71       1.831  1.600  0.750   14.003    Y    Y      Y    6-31g**
  S72       2.070  1.900  1.020   31.972    Y    Y      Y    6-31g**
  O73       1.702  1.600  0.730   15.995    Y    Y      Y    6-31g**
  O74       1.702  1.600  0.730   15.995    Y    Y      Y    6-31g**
  C75       1.949  1.900  0.770   12.000    Y    Y      Y    6-31g**
  C76       1.949  1.900  0.770   12.000    Y    Y      Y    6-31g**
  C77       1.949  1.900  0.770   12.000    Y    Y      Y    6-31g**
  C78       1.949  1.900  0.770   12.000    Y    Y      Y    6-31g**
  C79       1.949  1.900  0.770   12.000    Y    Y      Y    6-31g**
  N80       1.831  1.600  0.750   14.003    Y    Y      Y    6-31g**
  N81       1.831  1.600  0.750   14.003    Y    Y      Y    6-31g**
  C82       1.949  1.900  0.770   12.000    Y    Y      Y    6-31g**
  C83       1.949  1.900  0.770   12.000    Y    Y      Y    6-31g**
  C84       1.949  1.900  0.770   12.000    Y    Y      Y    6-31g**
  C85       1.949  1.900  0.770   12.000    Y    Y      Y    6-31g**
  H86       1.597  1.150  0.320    1.008    Y    Y      Y    6-31g**
  H87       1.597  1.150  0.320    1.008    Y    Y      Y    6-31g**
  H88       1.597  1.150  0.320    1.008    Y    Y      Y    6-31g**
  H89       1.597  1.150  0.320    1.008    Y    Y      Y    6-31g**
  H90       1.597  1.150  0.320    1.008    Y    Y      Y    6-31g**
  H91       1.597  1.150  0.320    1.008    Y    Y      Y    6-31g**
  H92       1.597  1.150  0.320    1.008    Y    Y      Y    6-31g**
  H93       1.597  1.150  0.320    1.008    Y    Y      Y    6-31g**
  H94       1.597  1.150  0.320    1.008    Y    Y      Y    6-31g**
  H95       1.597  1.150  0.320    1.008    Y    Y      Y    6-31g**
  H96       1.597  1.150  0.320    1.008    Y    Y      Y    6-31g**
  H97       1.597  1.150  0.320    1.008    Y    Y      Y    6-31g**
  H98       1.597  1.150  0.320    1.008    Y    Y      Y    6-31g**
  H99       1.597  1.150  0.320    1.008    Y    Y      Y    6-31g**
  H100      1.597  1.150  0.320    1.008    Y    Y      Y    6-31g**
  H101      1.597  1.150  0.320    1.008    Y    Y      Y    6-31g**
  H102      1.597  1.150  0.320    1.008    Y    Y      Y    6-31g**
  H103      1.597  1.150  0.320    1.008    Y    Y      Y    6-31g**
  H104      1.597  1.150  0.320    1.008    Y    Y      Y    6-31g**
  H105      1.597  1.150  0.320    1.008    Y    Y      Y    6-31g**
  H106      1.597  1.150  0.320    1.008    Y    Y      Y    6-31g**
  H107      1.597  1.150  0.320    1.008    Y    Y      Y    6-31g**
  H108      1.597  1.150  0.320    1.008    Y    Y      Y    6-31g**
  H109      1.597  1.150  0.320    1.008    Y    Y      Y    6-31g**
  H110      1.597  1.150  0.320    1.008    Y    Y      Y    6-31g**
  H111      1.597  1.150  0.320    1.008    Y    Y      Y    6-31g**
  H112      1.597  1.150  0.320    1.008    Y    Y      Y    6-31g**
  H113      1.597  1.150  0.320    1.008    Y    Y      Y    6-31g**
  H114      1.597  1.150  0.320    1.008    Y    Y      Y    6-31g**
  H115      1.597  1.150  0.320    1.008    Y    Y      Y    6-31g**
  H116      1.597  1.150  0.320    1.008    Y    Y      Y    6-31g**
  H117      1.597  1.150  0.320    1.008    Y    Y      Y    6-31g**
  H118      1.597  1.150  0.320    1.008    Y    Y      Y    6-31g**
  H119      1.597  1.150  0.320    1.008    Y    Y      Y    6-31g**
  H120      1.597  1.150  0.320    1.008    Y    Y      Y    6-31g**
  H121      1.597  1.150  0.320    1.008    Y    Y      Y    6-31g**
  H122      1.597  1.150  0.320    1.008    Y    Y      Y    6-31g**
  H123      1.597  1.150  0.320    1.008    Y    Y      Y    6-31g**
  H124      1.597  1.150  0.320    1.008    Y    Y      Y    6-31g**
  H125      1.597  1.150  0.320    1.008    Y    Y      Y    6-31g**
  H126      1.597  1.150  0.320    1.008    Y    Y      Y    6-31g**
  H127      1.597  1.150  0.320    1.008    Y    Y      Y    6-31g**
  H128      1.597  1.150  0.320    1.008    Y    Y      Y    6-31g**
  H129      1.597  1.150  0.320    1.008    Y    Y      Y    6-31g**
  H130      1.597  1.150  0.320    1.008    Y    Y      Y    6-31g**
  H131      1.597  1.150  0.320    1.008    Y    Y      Y    6-31g**
  H132      1.597  1.150  0.320    1.008    Y    Y      Y    6-31g**
  H133      1.597  1.150  0.320    1.008    Y    Y      Y    6-31g**
  H134      1.597  1.150  0.320    1.008    Y    Y      Y    6-31g**
  H135      1.597  1.150  0.320    1.008    Y    Y      Y    6-31g**
  H136      1.597  1.150  0.320    1.008    Y    Y      Y    6-31g**
  H137      1.597  1.150  0.320    1.008    Y    Y      Y    6-31g**
  H138      1.597  1.150  0.320    1.008    Y    Y      Y    6-31g**
  H139      1.597  1.150  0.320    1.008    Y    Y      Y    6-31g**
  H140      1.597  1.150  0.320    1.008    Y    Y      Y    6-31g**
  H141      1.597  1.150  0.320    1.008    Y    Y      Y    6-31g**
  
  Peak memory usage:    526 Mb
  
  end of program pre
   
 Time(pre)  user:        0.0  user+sys:        0.0  wallclock:        1.1
  
  start of program onee
  
  smallest eigenvalue of S:    2.277E-04
  number of canonical orbitals.....         1564
  Peak memory usage:    700 Mb
  
  end of program onee
   
 Time(onee)  user:       25.0  user+sys:       26.0  wallclock:       39.4
  
  start of program hfig
  
  initial wavefunction generated automatically from atomic wavefunctions
 
  Irreducible     Total no   No of occupied orbitals 
  representation  orbitals   Shell_1  Shell_2    ...
  No Symm         1564        308
  ------------------------
  Orbital occupation/shell    1.000
 
  Peak memory usage:    639 Mb
  
  end of program hfig
   
 Time(hfig)  user:       35.0  user+sys:       36.0  wallclock:       51.2
  
  start of program probe
  
  Peak memory usage:    633 Mb
  
  end of program probe
   
 Time(probe)  user:       28.0  user+sys:       28.0  wallclock:       41.8
  
  start of program grid
  
  
   grid     grid set  grid #  grid sym
  ------    --------  ------  --------
  coarse        0        0        1
  medium        2        1        1
  fine          0        0        1
  ultrafine     4        2        1
  charge       -1        3        1
  gradient      4        2        1
  density       0        0        1
  DFT-fine    -13        4        1
  DFT-med.    -13        4        1
  DFT-grad    -13        4        1
  DFT-der2      0        0        1
  DFT-cphf      0        0        1
  LMP2-enrg     4        2        1
  LMP2-grad     2        1        1
  DFT-cphf2     0        0        1
  PBF-dens      0        0        1
  plotting      0        0        1
  
   
  number of gridpoints: 
     atom        C1       C2       C3       C4       C5       C6       C7
  grid # 1       97      101       94      102      100       96       93
  grid # 2      338      360      337      366      358      335      336
  grid # 3       34       29       43       45       16       46       26
  grid # 4    48124    48124    48124    48124    48124    48124    48124
   
  number of gridpoints: 
     atom        C8       C9      C10      C11      O12     Si13      C14
  grid # 1       94       97      100      100      113      469      101
  grid # 2      336      357      353      360      437      469      355
  grid # 3       49       18       13        9       41        7       10
  grid # 4    48124    48124    48124    48124    47716    38542    48124
   
  number of gridpoints: 
     atom       C15      C16      C17      C18      C19      C20     Si21
  grid # 1       98      101       96       92       96       99      471
  grid # 2      358      363      333      329      337      361      471
  grid # 3       20       18       13       12       25       12        7
  grid # 4    48124    48124    48124    48124    48124    48124    38542
   
  number of gridpoints: 
     atom       O22      C23      C24      P25      O26      O27      C28
  grid # 1      112       94       93      443      114      112       99
  grid # 2      436      334      334      443      451      439      359
  grid # 3       47       21       26       10       63       36       10
  grid # 4    47716    48124    48124    38640    47716    47716    48124
   
  number of gridpoints: 
     atom       C29      C30      C31      C32      C33      C34      C35
  grid # 1      101      101      101      100      101       92       94
  grid # 2      354      356      360      357      357      335      335
  grid # 3        7        7       12       11       13       22       16
  grid # 4    48124    48124    48124    48124    48124    48124    48124
   
  number of gridpoints: 
     atom       C36      C37      C38      C39      C40      C41      C42
  grid # 1       92       94       92       94       92       96       92
  grid # 2      332      330      338      334      335      340      334
  grid # 3       15       10       24       19       20       30       22
  grid # 4    48124    48124    48124    48124    48124    48124    48124
   
  number of gridpoints: 
     atom       C43      C44      C45      C46      C47      C48      C49
  grid # 1       96       92       96       93       93       93       93
  grid # 2      336      334      340      334      333      332      331
  grid # 3       19       17       29       34       32       25       23
  grid # 4    48124    48124    48124    48124    48124    48124    48124
   
  number of gridpoints: 
     atom       C50      C51      C52      C53      C54      C55      C56
  grid # 1       93       92       94       94       93       93       94
  grid # 2      333      333      335      335      335      335      335
  grid # 3       27       20       42       45       35       39       46
  grid # 4    48124    48124    48124    48124    48124    48124    48124
   
  number of gridpoints: 
     atom       C57      C58      C59      C60      C61      C62      C63
  grid # 1       94       93       93       93       92       94       94
  grid # 2      336      334      335      334      333      335      336
  grid # 3       45       34       34       31       25       40       42
  grid # 4    48124    48124    48124    48124    48124    48124    48124
   
  number of gridpoints: 
     atom       C64      C65      C66      C67      C68      C69      C70
  grid # 1       96       95      100       95       97       97       90
  grid # 2      332      334      362      328      332      333      324
  grid # 3       41       28       21       21       40       47        6
  grid # 4    48124    48124    48124    48124    48124    48124    48124
   
  number of gridpoints: 
     atom       N71      S72      O73      O74      C75      C76      C77
  grid # 1       99      443      119      122       98       96       96
  grid # 2      353      443      487      497      356      330      331
  grid # 3       12       10      155      239       26       33       36
  grid # 4    47928    48492    47716    47716    48124    48124    48124
   
  number of gridpoints: 
     atom       C78      C79      N80      N81      C82      C83      C84
  grid # 1       96       96      110       99       94       94       94
  grid # 2      331      337      417      352      329      329      330
  grid # 3       35       35       79       31       20       29       32
  grid # 4    48124    48124    47928    47928    48124    48124    48124
   
  number of gridpoints: 
     atom       C85      H86      H87      H88      H89      H90      H91
  grid # 1       89      112      118      118      109      118      113
  grid # 2      321      432      451      446      425      453      434
  grid # 3        7      216      413      359      175      425      233
  grid # 4    48124    48426    48426    48426    48426    48426    48426
   
  number of gridpoints: 
     atom       H92      H93      H94      H95      H96      H97      H98
  grid # 1      112      117      117      117       97      108      112
  grid # 2      429      441      448      449      383      421      436
  grid # 3      189      329      392      403       43      156      247
  grid # 4    48426    48426    48426    48426    48426    48426    48426
   
  number of gridpoints: 
     atom       H99     H100     H101     H102     H103     H104     H105
  grid # 1      106      113      111      112      112      111      112
  grid # 2      414      436      435      437      439      429      437
  grid # 3       93      259      246      275      263      197      261
  grid # 4    48426    48426    48426    48426    48426    48426    48426
   
  number of gridpoints: 
     atom      H106     H107     H108     H109     H110     H111     H112
  grid # 1      108      105      111      113      117      114      113
  grid # 2      425      411      433      435      451      442      436
  grid # 3      184       79      230      255      381      309      271
  grid # 4    48426    48426    48426    48426    48426    48426    48426
   
  number of gridpoints: 
     atom      H113     H114     H115     H116     H117     H118     H119
  grid # 1      117      117      118      118      118      118      118
  grid # 2      449      448      453      453      452      452      453
  grid # 3      375      356      420      425      420      418      424
  grid # 4    48426    48426    48426    48426    48426    48426    48426
   
  number of gridpoints: 
     atom      H120     H121     H122     H123     H124     H125     H126
  grid # 1      118      117      117      116      112      118      118
  grid # 2      453      449      449      448      431      452      453
  grid # 3      414      366      364      364      201      419      425
  grid # 4    48426    48426    48426    48426    48426    48426    48426
   
  number of gridpoints: 
     atom      H127     H128     H129     H130     H131     H132     H133
  grid # 1      115      105      109      118      118      102      111
  grid # 2      441      412      423      450      451      405      428
  grid # 3      311      101      158      408      419       74      187
  grid # 4    48426    48426    48426    48426    48426    48426    48426
   
  number of gridpoints: 
     atom      H134     H135     H136     H137     H138     H139     H140
  grid # 1      116      112      112      100      107      116      113
  grid # 2      443      431      434      398      417      454      445
  grid # 3      310      226      249       78      103      390      320
  grid # 4    48426    48426    48426    48426    48426    48426    48426
   
  number of gridpoints: 
     atom      H141    total
  grid # 1      110    16026
  grid # 2      428    54617
  grid # 3      198    18407
  grid # 4    48426  6771080
   
  Peak memory usage:    666 Mb
  
  end of program grid
   
 Time(grid)  user:      980.0  user+sys:      985.0  wallclock:     1134.3
  
  start of program rwr
  
  Peak memory usage:    648 Mb
  
  end of program rwr
   
 Time(rwr)  user:       63.0  user+sys:       68.0  wallclock:       73.7
  
  start of program scf
  
 number of electrons..........        616
 number of alpha electrons....        308
 number of beta electrons.....        308
 number of orbitals, total....       1564
 number of doubly-occ'd orbs..        308
 number of open shell orbs....          0
 number of occupied orbitals..        308
 number of virtual orbitals...       1256
 number of hamiltonians.......          1
 number of shells.............          1
 SCF type: DFT=M06-2X
  
       i  u  d  i  g                   
       t  p  i  c  r                                 RMS    maximum
       e  d  i  u  i                       energy  density   DIIS  
       r  t  s  t  d       total energy    change  change    error 
  
etot    1  N  N  1  U   -4700.05100284774           2.3E-03  1.2E-01
etot    2  N  Y  1  U   -4706.43054035220  6.4E+00  2.5E-03  7.9E-02
etot    3  N  Y  1  U   -4704.66096720505 -1.8E+00  2.1E-03  1.2E-01
etot    4  N  Y  1  U   -4709.75544594047  5.1E+00  5.5E-04  4.8E-02
etot    5  N  Y  1  U   -4709.93539616963  1.8E-01  2.5E-04  1.3E-02
etot    6  N  Y  1  U   -4710.02366813853  8.8E-02  8.0E-05  4.5E-03
etot    7  N  Y  1  U   -4710.03194180293  8.3E-03  2.6E-05  1.4E-03
etot    8  N  Y  1  U   -4710.03284077503  9.0E-04  1.1E-05  4.1E-04
etot    9  N  Y  1  U   -4710.03295338966  1.1E-04  4.4E-06  3.1E-04
etot   10  N  N  1  U   -4710.03298239494  2.9E-05  0.0E+00  0.0E+00
  
  
 Energy components, in hartrees:
   (A)  Nuclear repulsion............   17416.98935025324
   (E)  Total one-electron terms.....  -41171.26313838726
   (F)    Electron-nuclear...........  -45846.56758788447
   (H)    Kinetic....................    4675.30444949723
   (I)  Total two-electron terms.....   19044.24080573908
   (J)    Coulomb....................   19617.59123345542
   (K)    Exchange+Correlation.......    -573.35042771634
   (L)  Electronic energy............  -22127.02233264818  (E+I)
   (M)  -V/T.........................       2.00742807945  (-(A+F+I)/H)
   (N)  Total energy.................   -4710.03298239494  (A+L)
  
 SCFE: SCF energy: DFT(m06-2x)     -4710.03298239494 hartrees   iterations:  10
  
 
 HOMO energy:    -0.25420
 LUMO energy:    -0.05121
 
  Orbital energies (hartrees): 
   -90.15871   -78.18452   -67.00744   -67.00586   -19.67506   -19.67386
   -19.63614   -19.63296   -19.59165   -19.58463   -14.81322   -14.79462
   -14.77523   -10.65208   -10.62020   -10.61942   -10.61666   -10.61225
   -10.60296   -10.59515   -10.57716   -10.57612   -10.57367   -10.57285
   -10.57163   -10.56943   -10.56807   -10.56677   -10.56550   -10.56469
   -10.56277   -10.56274   -10.56168   -10.56165   -10.56162   -10.56041
   -10.55982   -10.55916   -10.55912   -10.55804   -10.55797   -10.55778
   -10.55686   -10.55252   -10.55246   -10.55141   -10.55039   -10.55036
   -10.55030   -10.54928   -10.54924   -10.54891   -10.54801   -10.54788
   -10.54768   -10.54739   -10.54714   -10.54711   -10.54694   -10.54694
   -10.54621   -10.54607   -10.54592   -10.54567   -10.54533   -10.54480
   -10.54477   -10.54341   -10.54341   -10.54259   -10.54154   -10.54137
   -10.54125   -10.54074   -10.54034   -10.54016   -10.53990   -10.53975
   -10.53839   -10.53150   -10.53125   -10.53036   -10.53030   -10.52653
   -10.52448    -8.46838    -6.96390    -6.39073    -6.38958    -6.38887
    -5.53879    -5.53718    -5.08252    -5.08136    -5.07970    -3.84853
    -3.84834    -3.84803    -3.84694    -3.84671    -3.84643    -1.22801
    -1.21444    -1.17060    -1.11443    -1.10944    -1.08804    -1.06901
    -1.04930    -1.03510    -0.98227    -0.96775    -0.96736    -0.94379
    -0.94337    -0.93956    -0.93952    -0.93518    -0.93338    -0.92177
    -0.91181    -0.91132    -0.89491    -0.89094    -0.88716    -0.87023
    -0.85445    -0.84843    -0.84317    -0.84139    -0.83720    -0.83487
    -0.83483    -0.83288    -0.83250    -0.83061    -0.82883    -0.82845
    -0.82781    -0.82534    -0.82415    -0.82325    -0.82144    -0.81950
    -0.80127    -0.80082    -0.74239    -0.73620    -0.72547    -0.70800
    -0.70240    -0.70185    -0.69785    -0.69618    -0.68931    -0.68202
    -0.67883    -0.67764    -0.67558    -0.67276    -0.67162    -0.67013
    -0.66801    -0.66597    -0.66520    -0.66140    -0.66082    -0.66022
    -0.65883    -0.65749    -0.65587    -0.64892    -0.64034    -0.63445
    -0.61983    -0.60780    -0.60431    -0.60196    -0.59930    -0.59486
    -0.58169    -0.58076    -0.57815    -0.57653    -0.57617    -0.57296
    -0.56830    -0.56061    -0.56036    -0.55635    -0.55197    -0.54560
    -0.54306    -0.53990    -0.53860    -0.53348    -0.52692    -0.52592
    -0.52312    -0.52023    -0.51728    -0.51695    -0.51667    -0.51496
    -0.51226    -0.51056    -0.50999    -0.50611    -0.50333    -0.50070
    -0.49986    -0.49908    -0.49877    -0.49851    -0.49693    -0.49519
    -0.49378    -0.49236    -0.49154    -0.49080    -0.49056    -0.48458
    -0.48363    -0.48211    -0.48133    -0.48078    -0.48027    -0.47877
    -0.47663    -0.47580    -0.47517    -0.46877    -0.46791    -0.46583
    -0.46211    -0.45648    -0.45359    -0.45032    -0.44917    -0.44895
    -0.44642    -0.44498    -0.44301    -0.43988    -0.43399    -0.42725
    -0.42404    -0.42344    -0.42251    -0.42080    -0.41972    -0.41781
    -0.41760    -0.41530    -0.41171    -0.40765    -0.40509    -0.40248
    -0.39973    -0.39863    -0.39190    -0.39155    -0.39128    -0.38975
    -0.38853    -0.38771    -0.38602    -0.38508    -0.38392    -0.38289
    -0.38057    -0.37766    -0.37352    -0.36942    -0.36569    -0.35356
    -0.35301    -0.34894    -0.34491    -0.34231    -0.34056    -0.33998
    -0.33827    -0.33655    -0.33233    -0.33009    -0.32833    -0.32568
    -0.32074    -0.31349    -0.30954    -0.30350    -0.30304    -0.30080
    -0.30018    -0.29817    -0.29729    -0.29599    -0.29381    -0.29108
    -0.28944    -0.28887    -0.28490    -0.28254    -0.28209    -0.27849
    -0.27212    -0.25420    -0.05121    -0.02443    -0.00510     0.00020
     0.00937     0.01239     0.01820     0.02193     0.02451     0.02565
 
  Peak memory usage:    844 Mb
  
  end of program scf
   
 Time(scf)  user:    23321.0  user+sys:    23430.0  wallclock:    25290.5
  
  start of program ch
  
  gridpoints used for charge fit        15923
    out of a possible maximum of        18407
  
   Electrostatic potential fitting constrained to reproduce
     total charge:                yes
     dipole moment:               no 
     traceless quadrupole moment: no 
     traceless octapole moment:   no 
  
  Atomic charges from electrostatic potential: 
   
 Atom       C1           C2           C3           C4           C5      
 Charge   -0.12216      0.03733     -0.17115      0.14232     -0.06011
   
 Atom       C6           C7           C8           C9           C10     
 Charge   -0.21278     -0.26921     -0.10878      0.13966     -0.12448
   
 Atom       C11          O12          Si13         C14          C15     
 Charge    0.03821     -0.32788     -0.24277      0.04384      0.31716
   
 Atom       C16          C17          C18          C19          C20     
 Charge    0.38794     -0.16821     -0.48794     -0.32827     -0.10295
   
 Atom       Si21         O22          C23          C24          P25     
 Charge    0.12122     -0.33809     -0.17673     -0.07765      1.01462
   
 Atom       O26          O27          C28          C29          C30     
 Charge   -0.54134     -0.65185      0.14056      0.19629      0.27595
   
 Atom       C31          C32          C33          C34          C35     
 Charge    0.04851      0.02751      0.06614     -0.09747     -0.21285
   
 Atom       C36          C37          C38          C39          C40     
 Charge   -0.13620     -0.20676     -0.22211     -0.25899     -0.10029
   
 Atom       C41          C42          C43          C44          C45     
 Charge   -0.15493     -0.18798     -0.05930      0.02769     -0.20271
   
 Atom       C46          C47          C48          C49          C50     
 Charge   -0.17954     -0.13121     -0.09462     -0.16699     -0.10598
   
 Atom       C51          C52          C53          C54          C55     
 Charge   -0.13198     -0.11414     -0.17205     -0.08547     -0.15901
   
 Atom       C56          C57          C58          C59          C60     
 Charge   -0.12916     -0.13615     -0.11251     -0.13913     -0.15672
   
 Atom       C61          C62          C63          C64          C65     
 Charge   -0.19463     -0.12191     -0.14410     -0.21878     -0.15759
   
 Atom       C66          C67          C68          C69          C70     
 Charge    0.26578     -0.06604     -0.21760     -0.04582     -0.32023
   
 Atom       N71          S72          O73          O74          C75     
 Charge   -0.09939      0.59891     -0.44418     -0.41876      0.58552
   
 Atom       C76          C77          C78          C79          N80     
 Charge   -0.42752      0.16441     -0.42642      0.44660     -0.64430
   
 Atom       N81          C82          C83          C84          C85     
 Charge   -0.09394     -0.02779     -0.20721     -0.03813     -0.09573
   
 Atom       H86          H87          H88          H89          H90     
 Charge    0.11792      0.14390      0.14130      0.15468      0.13154
   
 Atom       H91          H92          H93          H94          H95     
 Charge    0.13857      0.20788      0.16698      0.14570      0.12709
   
 Atom       H96          H97          H98          H99          H100    
 Charge    0.23772      0.12692      0.12775      0.07229      0.14758
   
 Atom       H101         H102         H103         H104         H105    
 Charge    0.12623      0.14690      0.09855      0.12421      0.14861
   
 Atom       H106         H107         H108         H109         H110    
 Charge    0.04780      0.05082      0.12761      0.14836      0.13655
   
 Atom       H111         H112         H113         H114         H115    
 Charge    0.11755      0.12755      0.12610      0.13735      0.13174
   
 Atom       H116         H117         H118         H119         H120    
 Charge    0.13812      0.12528      0.13747      0.13132      0.12952
   
 Atom       H121         H122         H123         H124         H125    
 Charge    0.13060      0.13221      0.12523      0.14059      0.13104
   
 Atom       H126         H127         H128         H129         H130    
 Charge    0.13510      0.14861      0.15271      0.15353      0.14828
   
 Atom       H131         H132         H133         H134         H135    
 Charge    0.12443      0.21343      0.18285      0.10569      0.15994
   
 Atom       H136         H137         H138         H139         H140    
 Charge    0.03072      0.24290      0.18143      0.17390      0.10598
   
 Atom       H141    
 Charge    0.12590
  
  sum of atomic charges:     0.000000
   
 RMS Error   1.00E-03 hartrees
 
  Peak memory usage:    584 Mb
  
  end of program ch
   
 Time(ch)  user:       17.0  user+sys:       18.0  wallclock:       19.5
  
  start of program post
  
  Writing input files for PBF
  Peak memory usage:    534 Mb
  
  end of program post
   
 Time(post)  user:        0.0  user+sys:        0.0  wallclock:        0.3

  start of program pbf

Pbf Version 4.00

Molecular surface area:      786.90433   [A2]
Reaction field energy:       -14.86330   [kT]
  Peak memory usage: 556 Mb

  end of program pbf

 Time(pbf)  user:        8.9  user+sys:        9.0  wallclock:        9.6
  
  start of program solv
  
   number of surface charges from PBF   12880
   sum of surface charges     -0.00031
   
  nuclear repulsion energy.......   17416.989350253 hartrees
  Peak memory usage:    694 Mb
  
  end of program solv
   
 Time(solv)  user:       35.0  user+sys:       35.0  wallclock:       42.8
  
  start of program scf
  
  
       i  u  d  i  g                   
       t  p  i  c  r                                 RMS    maximum
       e  d  i  u  i                       energy  density   DIIS  
       r  t  s  t  d       total energy    change  change    error 
  
etot    1  N  N  1  U   -4710.06438865266           4.7E-05  7.0E-04
etot    2  N  Y  1  U   -4710.06502054489  6.3E-04  1.3E-05  5.5E-04
etot    3  N  Y  1  U   -4710.06516065339  1.4E-04  4.7E-06  3.3E-04
etot    4  N  N  1  U   -4710.06518849072  2.8E-05  0.0E+00  0.0E+00
  
  
 Energy components, in hartrees:
   (A)  Total zero-electron terms....   17418.94742429589
   (B)    Nuclear-nuclear............   17416.98935025324
   (C)    Nuclear-solvent............       1.95807404265
   (E)  Total one-electron terms.....  -41174.38781575378
   (F)    Electron-nuclear...........  -45847.74118582623
   (G)    Electron-solvent...........      -1.99107682623
   (H)    Kinetic....................    4675.34444689868
   (I)  Total two-electron terms.....   19045.37520296717
   (J)    Coulomb....................   19618.74268388250
   (K)    Exchange+Correlation.......    -573.36748091534
   (L)  Electronic energy............  -22129.01261278661  (E+I)
   (N)  Total quantum mech. energy...   -4710.06518849072  (A+L)
   (O)  Gas phase energy.............   -4710.03298239494
   (P)  Solution phase energy........   -4710.04868709893  (Q+R+S)
   (Q)    Total solute energy........   -4710.03218570714  (N-C-G)
   (R)    Total solvent energy.......      -0.01650139179  (C/2+G/2)
   (S)    Solute cavity energy.......       0.00000000000
   (U)  Reorganization energy........       0.00079668780  (Q-O)
   (V)  Solvation energy.............      -0.01570470399  (P-O)
  
 SCFE:  Solution phase energy: DFT(m06-2x)      -4710.04868709893 hartrees
        SCF iterations:   4
  
 
 HOMO energy:    -0.25475
 LUMO energy:    -0.05204
 
  Orbital energies (hartrees): 
   -90.16625   -78.18556   -67.00854   -67.00721   -19.67573   -19.67535
   -19.64443   -19.64137   -19.59294   -19.58611   -14.81353   -14.79844
   -14.77740   -10.65307   -10.62119   -10.62040   -10.61971   -10.61305
   -10.60326   -10.59706   -10.57893   -10.57589   -10.57533   -10.57328
   -10.57201   -10.57072   -10.57002   -10.56726   -10.56586   -10.56563
   -10.56280   -10.56218   -10.56152   -10.56133   -10.56105   -10.56083
   -10.55908   -10.55871   -10.55815   -10.55808   -10.55734   -10.55719
   -10.55642   -10.55364   -10.55324   -10.55236   -10.55233   -10.55110
   -10.55109   -10.55098   -10.55077   -10.54997   -10.54996   -10.54915
   -10.54911   -10.54888   -10.54880   -10.54825   -10.54816   -10.54816
   -10.54795   -10.54769   -10.54754   -10.54717   -10.54680   -10.54632
   -10.54624   -10.54489   -10.54344   -10.54344   -10.54288   -10.54254
   -10.54214   -10.54186   -10.54184   -10.54183   -10.54071   -10.53978
   -10.53968   -10.53329   -10.53298   -10.53225   -10.53181   -10.52766
   -10.52554    -8.47582    -6.96496    -6.39814    -6.39711    -6.39629
    -5.53992    -5.53855    -5.08358    -5.08242    -5.08076    -3.84965
    -3.84947    -3.84916    -3.84830    -3.84807    -3.84779    -1.23612
    -1.21543    -1.17171    -1.12315    -1.11017    -1.08923    -1.07180
    -1.05158    -1.03725    -0.98287    -0.96863    -0.96762    -0.94577
    -0.94525    -0.94214    -0.94077    -0.93594    -0.93508    -0.92219
    -0.91353    -0.91226    -0.89537    -0.89146    -0.88905    -0.87143
    -0.85487    -0.84823    -0.84464    -0.84255    -0.83742    -0.83684
    -0.83610    -0.83482    -0.83380    -0.83134    -0.82979    -0.82940
    -0.82919    -0.82646    -0.82600    -0.82432    -0.82223    -0.82101
    -0.80360    -0.80166    -0.74432    -0.73685    -0.72743    -0.70866
    -0.70375    -0.70246    -0.69771    -0.69707    -0.69006    -0.68201
    -0.67988    -0.67874    -0.67641    -0.67462    -0.67282    -0.67098
    -0.66838    -0.66743    -0.66516    -0.66227    -0.66171    -0.66157
    -0.65955    -0.65865    -0.65704    -0.64929    -0.64102    -0.63701
    -0.62044    -0.60880    -0.60565    -0.60292    -0.59956    -0.59810
    -0.58215    -0.58135    -0.57973    -0.57688    -0.57651    -0.57382
    -0.56964    -0.56391    -0.56085    -0.55938    -0.55263    -0.54619
    -0.54455    -0.54084    -0.53910    -0.53407    -0.53000    -0.52652
    -0.52475    -0.52262    -0.51903    -0.51792    -0.51723    -0.51518
    -0.51334    -0.51073    -0.51061    -0.50672    -0.50399    -0.50182
    -0.50120    -0.50041    -0.49973    -0.49841    -0.49772    -0.49588
    -0.49457    -0.49283    -0.49204    -0.49137    -0.49122    -0.48571
    -0.48431    -0.48300    -0.48235    -0.48197    -0.48160    -0.48062
    -0.47710    -0.47657    -0.47601    -0.46891    -0.46881    -0.46619
    -0.46196    -0.45742    -0.45485    -0.45138    -0.45035    -0.45005
    -0.44741    -0.44617    -0.44395    -0.44084    -0.43467    -0.42863
    -0.42657    -0.42519    -0.42381    -0.42330    -0.42185    -0.42021
    -0.41884    -0.41750    -0.41313    -0.40967    -0.40541    -0.40403
    -0.40064    -0.39870    -0.39553    -0.39319    -0.39217    -0.39180
    -0.39035    -0.38920    -0.38693    -0.38605    -0.38542    -0.38501
    -0.38295    -0.37935    -0.37672    -0.37467    -0.36738    -0.35465
    -0.35376    -0.35126    -0.34596    -0.34385    -0.34197    -0.34105
    -0.33965    -0.33776    -0.33396    -0.33338    -0.32919    -0.32716
    -0.32241    -0.31530    -0.31049    -0.30551    -0.30525    -0.30298
    -0.30277    -0.30062    -0.29991    -0.29736    -0.29513    -0.29299
    -0.29075    -0.29033    -0.28599    -0.28396    -0.28331    -0.28041
    -0.27315    -0.25475    -0.05204    -0.02475    -0.00786    -0.00128
     0.00770     0.01117     0.01625     0.02020     0.02298     0.02483
 
  Peak memory usage:    833 Mb
  
  end of program scf
   
 Time(scf)  user:     7188.0  user+sys:     7222.0  wallclock:     7854.4
  
  start of program sole
  
    SCRF                   solvation energy
  iteration          Hartrees            kcal/mol
     0               0.0000000            0.0000
     1              -0.0157047           -9.8549
  
  solvation energy not yet converged... 
  
  Peak memory usage:    634 Mb
  
  end of program sole
   
 Time(sole)  user:        0.0  user+sys:        0.0  wallclock:        0.2
  
  start of program ch
  
  gridpoints used for charge fit        15923
    out of a possible maximum of        15923
  
   Electrostatic potential fitting constrained to reproduce
     total charge:                yes
     dipole moment:               no 
     traceless quadrupole moment: no 
     traceless octapole moment:   no 
  
  Atomic charges from electrostatic potential: 
   
 Atom       C1           C2           C3           C4           C5      
 Charge   -0.12629      0.03845     -0.17838      0.14314     -0.06625
   
 Atom       C6           C7           C8           C9           C10     
 Charge   -0.22114     -0.28426     -0.11563      0.13363     -0.11562
   
 Atom       C11          O12          Si13         C14          C15     
 Charge    0.05774     -0.31973     -0.26813      0.04621      0.29995
   
 Atom       C16          C17          C18          C19          C20     
 Charge    0.39251     -0.17055     -0.49850     -0.33847     -0.09000
   
 Atom       Si21         O22          C23          C24          P25     
 Charge    0.10121     -0.32387     -0.18224     -0.08301      0.98781
   
 Atom       O26          O27          C28          C29          C30     
 Charge   -0.52479     -0.64028      0.14984      0.21078      0.28166
   
 Atom       C31          C32          C33          C34          C35     
 Charge    0.05400      0.03251      0.07131     -0.10161     -0.22068
   
 Atom       C36          C37          C38          C39          C40     
 Charge   -0.14192     -0.21610     -0.22521     -0.26371     -0.10452
   
 Atom       C41          C42          C43          C44          C45     
 Charge   -0.15893     -0.19920     -0.05858      0.03459     -0.20783
   
 Atom       C46          C47          C48          C49          C50     
 Charge   -0.18393     -0.13721     -0.10267     -0.17879     -0.11304
   
 Atom       C51          C52          C53          C54          C55     
 Charge   -0.13578     -0.12293     -0.17938     -0.09154     -0.16556
   
 Atom       C56          C57          C58          C59          C60     
 Charge   -0.13693     -0.14385     -0.11796     -0.14438     -0.16735
   
 Atom       C61          C62          C63          C64          C65     
 Charge   -0.20340     -0.12587     -0.15312     -0.22381     -0.16465
   
 Atom       C66          C67          C68          C69          C70     
 Charge    0.27667     -0.07088     -0.22641     -0.04899     -0.34665
   
 Atom       N71          S72          O73          O74          C75     
 Charge   -0.07322      0.60806     -0.45985     -0.44270      0.58678
   
 Atom       C76          C77          C78          C79          N80     
 Charge   -0.43511      0.16824     -0.43021      0.45020     -0.65633
   
 Atom       N81          C82          C83          C84          C85     
 Charge   -0.09682     -0.02633     -0.21237     -0.04285     -0.08960
   
 Atom       H86          H87          H88          H89          H90     
 Charge    0.11947      0.15203      0.14818      0.15998      0.13997
   
 Atom       H91          H92          H93          H94          H95     
 Charge    0.14090      0.21323      0.17524      0.15344      0.13526
   
 Atom       H96          H97          H98          H99          H100    
 Charge    0.22717      0.12766      0.13252      0.07255      0.15253
   
 Atom       H101         H102         H103         H104         H105    
 Charge    0.12649      0.15034      0.10077      0.12557      0.15419
   
 Atom       H106         H107         H108         H109         H110    
 Charge    0.04549      0.04773      0.13118      0.15051      0.14281
   
 Atom       H111         H112         H113         H114         H115    
 Charge    0.12606      0.13556      0.13342      0.14344      0.13984
   
 Atom       H116         H117         H118         H119         H120    
 Charge    0.14580      0.13291      0.14535      0.13953      0.13698
   
 Atom       H121         H122         H123         H124         H125    
 Charge    0.13814      0.13872      0.13252      0.14306      0.13819
   
 Atom       H126         H127         H128         H129         H130    
 Charge    0.14285      0.15553      0.15989      0.15658      0.15653
   
 Atom       H131         H132         H133         H134         H135    
 Charge    0.13276      0.21880      0.18760      0.11244      0.16605
   
 Atom       H136         H137         H138         H139         H140    
 Charge    0.03687      0.24306      0.18364      0.17956      0.11453
   
 Atom       H141    
 Charge    0.12917
  
  sum of atomic charges:     0.000000
   
 RMS Error   1.01E-03 hartrees
 
  Peak memory usage:    583 Mb
  
  end of program ch
   
 Time(ch)  user:       16.0  user+sys:       16.0  wallclock:       26.0
  
  start of program post
  
  Writing input files for PBF
  Peak memory usage:    534 Mb
  
  end of program post
   
 Time(post)  user:        0.0  user+sys:        0.0  wallclock:        0.3

  start of program pbf

Pbf Version 4.00

Molecular surface area:      786.90433   [A2]
Reaction field energy:       -16.74057   [kT]
  Peak memory usage: 556 Mb

  end of program pbf

 Time(pbf)  user:        9.0  user+sys:        9.1  wallclock:       10.0
  
  start of program solv
  
   number of surface charges from PBF   12880
   sum of surface charges     -0.00032
   
  nuclear repulsion energy.......   17416.989350253 hartrees
  Peak memory usage:    694 Mb
  
  end of program solv
   
 Time(solv)  user:       34.0  user+sys:       34.0  wallclock:       38.0
  
  start of program scf
  
  
       i  u  d  i  g                   
       t  p  i  c  r                                 RMS    maximum
       e  d  i  u  i                       energy  density   DIIS  
       r  t  s  t  d       total energy    change  change    error 
  
etot    1  N  N  1  U   -4710.06721553966           5.2E-06  9.3E-05
etot    2  N  N  1  U   -4710.06722127222  5.7E-06  0.0E+00  0.0E+00
  
  
 Energy components, in hartrees:
   (A)  Total zero-electron terms....   17419.14735520268
   (B)    Nuclear-nuclear............   17416.98935025324
   (C)    Nuclear-solvent............       2.15800494944
   (E)  Total one-electron terms.....  -41174.73647913607
   (F)    Electron-nuclear...........  -45847.92161345766
   (G)    Electron-solvent...........      -2.19321412747
   (H)    Kinetic....................    4675.37834844905
   (I)  Total two-electron terms.....   19045.52190266118
   (J)    Coulomb....................   19618.89511906749
   (K)    Exchange+Correlation.......    -573.37321640631
   (L)  Electronic energy............  -22129.21457647490  (E+I)
   (N)  Total quantum mech. energy...   -4710.06722127222  (A+L)
   (O)  Gas phase energy.............   -4710.03298239494
   (P)  Solution phase energy........   -4710.04961668320  (Q+R+S)
   (Q)    Total solute energy........   -4710.03201209419  (N-C-G)
   (R)    Total solvent energy.......      -0.01760458901  (C/2+G/2)
   (S)    Solute cavity energy.......       0.00000000000
   (U)  Reorganization energy........       0.00097030075  (Q-O)
   (V)  Solvation energy.............      -0.01663428826  (P-O)
  
 SCFE:  Solution phase energy: DFT(m06-2x)      -4710.04961668320 hartrees
        SCF iterations:   2
  
 
 HOMO energy:    -0.30581
 LUMO energy:    -0.05226
 
  Orbital energies (hartrees): 
   -86.35757   -67.37819   -51.19799   -44.06021   -23.52496   -21.97809
   -21.10164   -20.55036   -18.55235   -17.69846   -16.59134   -16.32236
   -16.00311   -15.13462   -14.22797   -13.44951   -13.15790   -12.87652
   -12.65987   -12.29293   -12.12937   -11.50516   -11.41236   -11.39925
   -11.23513   -11.19385   -10.94736   -10.92839   -10.77804   -10.75241
   -10.65500   -10.62100   -10.59634   -10.57438   -10.55395   -10.54904
   -10.54609   -10.54598   -10.54535   -10.54456   -10.54415   -10.54004
   -10.53322   -10.53092   -10.53087   -10.52412   -10.52219   -10.51997
   -10.51861   -10.51617   -10.51361   -10.50661   -10.50661   -10.50367
   -10.49588   -10.48433   -10.48047   -10.48042   -10.47355   -10.47253
   -10.45938   -10.45914   -10.45713   -10.44802   -10.44777   -10.41808
   -10.39749   -10.37837   -10.35503   -10.32341   -10.27680   -10.25126
   -10.19199   -10.15357   -10.14004   -10.03734   -10.00190    -9.99870
    -9.80572    -9.79702    -9.77219    -9.51095    -9.50454    -9.30000
    -9.14395    -9.06165    -8.79414    -8.78700    -8.57731    -8.22364
    -7.56167    -7.44801    -7.30351    -6.56441    -6.54497    -6.47739
    -6.37532    -5.81796    -5.53256    -4.82759    -4.62288    -1.11366
    -1.11320    -1.06916    -1.02944    -1.01814    -0.95592    -0.95146
    -0.94514    -0.94333    -0.92965    -0.88931    -0.88839    -0.88754
    -0.87745    -0.87627    -0.86981    -0.86838    -0.86639    -0.86599
    -0.86129    -0.85393    -0.85094    -0.84838    -0.84118    -0.82045
    -0.81990    -0.81483    -0.81400    -0.80452    -0.80378    -0.77253
    -0.77145    -0.76669    -0.76480    -0.76467    -0.75961    -0.75521
    -0.74803    -0.73721    -0.73650    -0.73477    -0.73090    -0.70659
    -0.70384    -0.69643    -0.69504    -0.68480    -0.68433    -0.68273
    -0.67936    -0.67324    -0.66867    -0.66818    -0.66783    -0.66383
    -0.65667    -0.64774    -0.64253    -0.63954    -0.63061    -0.62347
    -0.62152    -0.61902    -0.61788    -0.60767    -0.60120    -0.59714
    -0.59468    -0.59277    -0.59132    -0.58735    -0.58571    -0.58310
    -0.58141    -0.58016    -0.57758    -0.57115    -0.56752    -0.56735
    -0.56110    -0.55837    -0.55643    -0.55617    -0.55569    -0.55512
    -0.55458    -0.55439    -0.55376    -0.55366    -0.55253    -0.55230
    -0.54970    -0.54757    -0.54710    -0.54555    -0.54506    -0.54372
    -0.54135    -0.54072    -0.53953    -0.52955    -0.52894    -0.52753
    -0.52683    -0.52508    -0.52037    -0.51894    -0.51783    -0.51762
    -0.51723    -0.51631    -0.51465    -0.51425    -0.51316    -0.51187
    -0.51025    -0.50977    -0.50831    -0.50604    -0.50447    -0.50366
    -0.50355    -0.50182    -0.50142    -0.50109    -0.50099    -0.50046
    -0.49740    -0.49667    -0.49436    -0.49382    -0.49316    -0.49159
    -0.49039    -0.49026    -0.48913    -0.48842    -0.48799    -0.48659
    -0.48597    -0.48564    -0.48122    -0.47754    -0.47665    -0.47637
    -0.47516    -0.47298    -0.47271    -0.47147    -0.46931    -0.46924
    -0.46871    -0.46816    -0.46801    -0.46785    -0.46536    -0.46456
    -0.46376    -0.46364    -0.46338    -0.46198    -0.46128    -0.46030
    -0.46022    -0.45929    -0.45893    -0.45827    -0.45795    -0.45791
    -0.45587    -0.45582    -0.45480    -0.44996    -0.44907    -0.44896
    -0.44812    -0.44577    -0.44555    -0.44360    -0.44302    -0.43961
    -0.43619    -0.43611    -0.43477    -0.43185    -0.43136    -0.43098
    -0.42802    -0.42537    -0.41928    -0.40862    -0.40464    -0.40383
    -0.40201    -0.40055    -0.39825    -0.39510    -0.38871    -0.37056
    -0.36061    -0.35326    -0.34797    -0.34044    -0.33097    -0.32690
    -0.31688    -0.30581    -0.05226    -0.02472    -0.00824    -0.00131
     0.00750     0.01105     0.01610     0.02009     0.02292     0.02472
 
  Peak memory usage:    833 Mb
  
  end of program scf
   
 Time(scf)  user:     2393.0  user+sys:     2406.0  wallclock:     2612.4
  
  start of program sole
  
    SCRF                   solvation energy
  iteration          Hartrees            kcal/mol
     0               0.0000000            0.0000
     1              -0.0157047           -9.8549
     2              -0.0166343          -10.4382
  
  solvation energy not yet converged... 
  
  Peak memory usage:    634 Mb
  
  end of program sole
   
 Time(sole)  user:        0.0  user+sys:        0.0  wallclock:        0.2
  
  start of program ch
  
  gridpoints used for charge fit        15923
    out of a possible maximum of        15923
  
   Electrostatic potential fitting constrained to reproduce
     total charge:                yes
     dipole moment:               no 
     traceless quadrupole moment: no 
     traceless octapole moment:   no 
  
  Atomic charges from electrostatic potential: 
   
 Atom       C1           C2           C3           C4           C5      
 Charge   -0.12686      0.03928     -0.17928      0.14323     -0.06609
   
 Atom       C6           C7           C8           C9           C10     
 Charge   -0.22162     -0.28519     -0.11665      0.13121     -0.11439
   
 Atom       C11          O12          Si13         C14          C15     
 Charge    0.05861     -0.31858     -0.27037      0.04596      0.29809
   
 Atom       C16          C17          C18          C19          C20     
 Charge    0.39075     -0.17047     -0.49881     -0.33946     -0.08779
   
 Atom       Si21         O22          C23          C24          P25     
 Charge    0.10104     -0.32160     -0.18290     -0.08309      0.98416
   
 Atom       O26          O27          C28          C29          C30     
 Charge   -0.52322     -0.63776      0.15078      0.21237      0.28129
   
 Atom       C31          C32          C33          C34          C35     
 Charge    0.05514      0.03422      0.07137     -0.10266     -0.22212
   
 Atom       C36          C37          C38          C39          C40     
 Charge   -0.14331     -0.21710     -0.22522     -0.26391     -0.10571
   
 Atom       C41          C42          C43          C44          C45     
 Charge   -0.15910     -0.20097     -0.05782      0.03611     -0.20786
   
 Atom       C46          C47          C48          C49          C50     
 Charge   -0.18288     -0.13880     -0.10304     -0.17983     -0.11391
   
 Atom       C51          C52          C53          C54          C55     
 Charge   -0.13618     -0.12387     -0.17995     -0.09228     -0.16607
   
 Atom       C56          C57          C58          C59          C60     
 Charge   -0.13839     -0.14513     -0.11860     -0.14586     -0.16960
   
 Atom       C61          C62          C63          C64          C65     
 Charge   -0.20554     -0.12607     -0.15447     -0.22470     -0.16521
   
 Atom       C66          C67          C68          C69          C70     
 Charge    0.27708     -0.07042     -0.22726     -0.05000     -0.34453
   
 Atom       N71          S72          O73          O74          C75     
 Charge   -0.07302      0.60633     -0.46205     -0.44344      0.58624
   
 Atom       C76          C77          C78          C79          N80     
 Charge   -0.43688      0.16752     -0.43108      0.44949     -0.65381
   
 Atom       N81          C82          C83          C84          C85     
 Charge   -0.09783     -0.02528     -0.21321     -0.04287     -0.08838
   
 Atom       H86          H87          H88          H89          H90     
 Charge    0.11968      0.15296      0.14871      0.16065      0.14098
   
 Atom       H91          H92          H93          H94          H95     
 Charge    0.14109      0.21369      0.17617      0.15440      0.13629
   
 Atom       H96          H97          H98          H99          H100    
 Charge    0.22682      0.12790      0.13300      0.07312      0.15291
   
 Atom       H101         H102         H103         H104         H105    
 Charge    0.12626      0.15051      0.10072      0.12574      0.15467
   
 Atom       H106         H107         H108         H109         H110    
 Charge    0.04467      0.04713      0.13157      0.15038      0.14350
   
 Atom       H111         H112         H113         H114         H115    
 Charge    0.12702      0.13644      0.13438      0.14422      0.14073
   
 Atom       H116         H117         H118         H119         H120    
 Charge    0.14672      0.13387      0.14622      0.14065      0.13790
   
 Atom       H121         H122         H123         H124         H125    
 Charge    0.13910      0.13976      0.13349      0.14325      0.13895
   
 Atom       H126         H127         H128         H129         H130    
 Charge    0.14375      0.15643      0.16046      0.15596      0.15722
   
 Atom       H131         H132         H133         H134         H135    
 Charge    0.13396      0.21804      0.18831      0.11358      0.16719
   
 Atom       H136         H137         H138         H139         H140    
 Charge    0.03743      0.24341      0.18347      0.17979      0.11551
   
 Atom       H141    
 Charge    0.12936
  
  sum of atomic charges:     0.000000
   
 RMS Error   1.01E-03 hartrees
 
  Peak memory usage:    583 Mb
  
  end of program ch
   
 Time(ch)  user:       17.0  user+sys:       18.0  wallclock:       19.9
  
  start of program post
  
  Writing input files for PBF
  Peak memory usage:    534 Mb
  
  end of program post
   
 Time(post)  user:        0.0  user+sys:        0.0  wallclock:        0.2

  start of program pbf

Pbf Version 4.00

Molecular surface area:      786.90433   [A2]
Reaction field energy:       -16.94754   [kT]
  Peak memory usage: 556 Mb

  end of program pbf

 Time(pbf)  user:        9.3  user+sys:        9.4  wallclock:       10.0
  
  start of program solv
  
   number of surface charges from PBF   12880
   sum of surface charges     -0.00033
   
  nuclear repulsion energy.......   17416.989350253 hartrees
  Peak memory usage:    694 Mb
  
  end of program solv
   
 Time(solv)  user:       35.0  user+sys:       35.0  wallclock:       44.1
  
  start of program scf
  
  
       i  u  d  i  g                   
       t  p  i  c  r                                 RMS    maximum
       e  d  i  u  i                       energy  density   DIIS  
       r  t  s  t  d       total energy    change  change    error 
  
etot    1  N  N  1  U   -4710.06743880984           3.8E-06  1.2E-04
etot    2  N  N  1  U   -4710.06743157724 -7.2E-06  0.0E+00  0.0E+00
  
  
 Energy components, in hartrees:
   (A)  Total zero-electron terms....   17419.16912164112
   (B)    Nuclear-nuclear............   17416.98935025324
   (C)    Nuclear-solvent............       2.17977138788
   (E)  Total one-electron terms.....  -41174.77093432675
   (F)    Electron-nuclear...........  -45847.90411967618
   (G)    Electron-solvent...........      -2.21520631933
   (H)    Kinetic....................    4675.34839166877
   (I)  Total two-electron terms.....   19045.53438110839
   (J)    Coulomb....................   19618.90331129383
   (K)    Exchange+Correlation.......    -573.36893018545
   (L)  Electronic energy............  -22129.23655321836  (E+I)
   (N)  Total quantum mech. energy...   -4710.06743157724  (A+L)
   (O)  Gas phase energy.............   -4710.03298239494
   (P)  Solution phase energy........   -4710.04971411152  (Q+R+S)
   (Q)    Total solute energy........   -4710.03199664579  (N-C-G)
   (R)    Total solvent energy.......      -0.01771746573  (C/2+G/2)
   (S)    Solute cavity energy.......       0.00000000000
   (U)  Reorganization energy........       0.00098574915  (Q-O)
   (V)  Solvation energy.............      -0.01673171658  (P-O)
  
 SCFE:  Solution phase energy: DFT(m06-2x)      -4710.04971411152 hartrees
        SCF iterations:   2
  
 
 HOMO energy:    -0.25467
 LUMO energy:    -0.05210
 
  Orbital energies (hartrees): 
   -90.16699   -78.18555   -67.00821   -67.00749   -19.67561   -19.67533
   -19.64682   -19.64168   -19.59270   -19.58659   -14.81360   -14.79882
   -14.77659   -10.65287   -10.62151   -10.62017   -10.61993   -10.61344
   -10.60300   -10.59689   -10.57925   -10.57604   -10.57567   -10.57306
   -10.57219   -10.57061   -10.57008   -10.56706   -10.56587   -10.56560
   -10.56267   -10.56251   -10.56143   -10.56143   -10.56115   -10.56069
   -10.55890   -10.55859   -10.55830   -10.55788   -10.55737   -10.55683
   -10.55591   -10.55357   -10.55330   -10.55257   -10.55234   -10.55128
   -10.55110   -10.55105   -10.55095   -10.55036   -10.55013   -10.54932
   -10.54905   -10.54900   -10.54887   -10.54843   -10.54829   -10.54826
   -10.54802   -10.54797   -10.54758   -10.54738   -10.54693   -10.54688
   -10.54637   -10.54479   -10.54350   -10.54336   -10.54288   -10.54265
   -10.54253   -10.54236   -10.54225   -10.54204   -10.54071   -10.53985
   -10.53922   -10.53337   -10.53307   -10.53220   -10.53206   -10.52804
   -10.52516    -8.47658    -6.96495    -6.39888    -6.39788    -6.39704
    -5.53961    -5.53884    -5.08357    -5.08241    -5.08075    -3.84934
    -3.84916    -3.84885    -3.84859    -3.84836    -3.84808    -1.23710
    -1.21536    -1.17171    -1.12425    -1.11027    -1.08928    -1.07178
    -1.05179    -1.03741    -0.98284    -0.96864    -0.96759    -0.94591
    -0.94542    -0.94236    -0.94092    -0.93604    -0.93522    -0.92209
    -0.91375    -0.91218    -0.89545    -0.89144    -0.88924    -0.87149
    -0.85482    -0.84821    -0.84468    -0.84270    -0.83748    -0.83695
    -0.83624    -0.83502    -0.83393    -0.83126    -0.82996    -0.82946
    -0.82921    -0.82658    -0.82616    -0.82442    -0.82235    -0.82108
    -0.80387    -0.80159    -0.74448    -0.73682    -0.72761    -0.70859
    -0.70388    -0.70237    -0.69767    -0.69711    -0.69006    -0.68204
    -0.67995    -0.67884    -0.67652    -0.67482    -0.67287    -0.67105
    -0.66847    -0.66758    -0.66526    -0.66239    -0.66180    -0.66164
    -0.65966    -0.65877    -0.65714    -0.64927    -0.64112    -0.63723
    -0.62042    -0.60886    -0.60578    -0.60303    -0.59954    -0.59840
    -0.58215    -0.58135    -0.57987    -0.57690    -0.57658    -0.57387
    -0.56976    -0.56423    -0.56082    -0.55973    -0.55255    -0.54621
    -0.54471    -0.54094    -0.53913    -0.53411    -0.53048    -0.52652
    -0.52502    -0.52284    -0.51916    -0.51799    -0.51731    -0.51524
    -0.51348    -0.51072    -0.51062    -0.50676    -0.50405    -0.50191
    -0.50135    -0.50052    -0.49987    -0.49847    -0.49760    -0.49589
    -0.49463    -0.49285    -0.49211    -0.49139    -0.49125    -0.48576
    -0.48430    -0.48309    -0.48239    -0.48211    -0.48171    -0.48082
    -0.47719    -0.47668    -0.47614    -0.46899    -0.46890    -0.46614
    -0.46200    -0.45749    -0.45495    -0.45144    -0.45043    -0.45016
    -0.44752    -0.44623    -0.44402    -0.44089    -0.43465    -0.42872
    -0.42677    -0.42533    -0.42396    -0.42375    -0.42199    -0.42033
    -0.41897    -0.41766    -0.41324    -0.40985    -0.40546    -0.40411
    -0.40070    -0.39863    -0.39638    -0.39324    -0.39224    -0.39190
    -0.39054    -0.38933    -0.38713    -0.38614    -0.38567    -0.38512
    -0.38295    -0.37961    -0.37732    -0.37479    -0.36742    -0.35463
    -0.35375    -0.35139    -0.34605    -0.34392    -0.34208    -0.34120
    -0.33963    -0.33788    -0.33399    -0.33361    -0.32927    -0.32727
    -0.32254    -0.31546    -0.31056    -0.30565    -0.30543    -0.30314
    -0.30297    -0.30081    -0.30005    -0.29751    -0.29527    -0.29319
    -0.29091    -0.29049    -0.28594    -0.28408    -0.28338    -0.28048
    -0.27312    -0.25467    -0.05210    -0.02463    -0.00807    -0.00138
     0.00756     0.01119     0.01611     0.02010     0.02282     0.02478
 
  Peak memory usage:    833 Mb
  
  end of program scf
   
 Time(scf)  user:     2409.0  user+sys:     2422.0  wallclock:     2618.3
  
  start of program sole
  
    SCRF                   solvation energy
  iteration          Hartrees            kcal/mol
     0               0.0000000            0.0000
     1              -0.0157047           -9.8549
     2              -0.0166343          -10.4382
     3              -0.0167317          -10.4993
  
  stopping: solvation energy converged
  
  iterations:   3    sfinal:    -10.4993 kcal/mol
  
  Peak memory usage:    634 Mb
  
  end of program sole
   
 Time(sole)  user:        0.0  user+sys:        0.0  wallclock:        0.2
  
  start of program post
  
  Writing input files for PBF
  Peak memory usage:    534 Mb
  
  end of program post
   
 Time(post)  user:        0.0  user+sys:        0.0  wallclock:        0.3

 Total cpu seconds     user:   36596.000   user+sys:   36778.000
  
 Total elapsed time:    39949 seconds

Job Toru-SiPh3-Type-II-Z-2-chkp-scan-unrestrained-uff-acc-sol completed on tethys at Thu Feb 16 03:42:10 2017
