[running at reduced cpu priority]
Job ModelCatalyst-8BindtoN-4-TS-fine-grid-uf-acc-sol_1_co started on tethys at Wed Jan 25 10:53:24 2017
jobid: tethys-0-588883a3 
Jaguar version 8.4, release  16
Molecular Point Group: C1      
Point Group used: C1
pre (input checking) done.
onee (1-electron integrals) done.
Job ModelCatalyst-8BindtoN-4-TS-fine-grid-uf-acc-sol_1_co completed on tethys at Wed Jan 25 10:53:28 2017
