[running at reduced cpu priority]
Job ModelCatalyst-8BindtoN-4-TS-fine-grid-uf-acc-sol_3_co started on tethys at Wed Jan 25 10:53:50 2017
jobid: tethys-0-588883bd 
Jaguar version 8.4, release  16
Molecular Point Group: C1      
Point Group used: C1
pre (input checking) done.
onee (1-electron integrals) done.
Job ModelCatalyst-8BindtoN-4-TS-fine-grid-uf-acc-sol_3_co completed on tethys at Wed Jan 25 10:53:56 2017
