Job B3LYP-SPE-Toru-SiPh3-NTf-Type-I-E-5-chkp-unrestrained-2 started on tethys at Wed Nov 23 14:14:35 2016
jobid: tethys-0-5835a44b

  +--------------------------------------------------------------------+
  |  Jaguar version 8.4, release  16                                   |
  |                                                                    |
  |  Copyright Schrodinger, Inc.                                       |
  |  All Rights Reserved.                                              |
  |                                                                    |
  |  The following have contributed to Jaguar (listed alphabetically): |
  |  Mike Beachy, Art Bochevarov, Dale Braden, Yixiang Cao,            |
  |  Chris Cortis, Rich Friesner, Bill Goddard, Hod Greeley,           |
  |  Tom Hughes, Jean-Marc Langlois, Daniel Mainz, Rob Murphy,         |
  |  Dean Philipp, Tom Pollard, Murco Ringnalda.                       |
  |                                                                    |
  |  Use of this program should be acknowledged in publications as:    |
  |                                                                    |
  |  Jaguar, version 8.4, Schrodinger, Inc., New York, NY, 2013.       |
  |                                                                    |
  |  A. D. Bochevarov, E. Harder, T. F. Hughes, J. R. Greenwood,       |
  |  D. A. Braden, D. M. Philipp, D. Rinaldo, M. D. Halls,             |
  |  J. Zhang, R. A. Friesner, "Jaguar: A High-Performance Quantum     |
  |  Chemistry Software Program with Strengths in Life and Materials   |
  |  Sciences", Int. J. Quantum Chem., 2013, 113(18), 2110-2142.       |
  +--------------------------------------------------------------------+
  
  start of program pre
  
  Job name: B3LYP-SPE-Toru-SiPh3-NTf-Type-I-E-5-chkp-unrestrained-2
  Executables used: /usr/local/shared/schrodinger/current/jaguar-v84016/bin/Linux-x86_64
  Temporary files : /home/ab2144/.schrodinger/tmp/B3LYP-SPE-Toru-SiPh3-NTf-Type-I-E-5-chkp-unrestrained-2
  Maestro file (input):  B3LYP-SPE-Toru-SiPh3-NTf-Type-I-E-5-chkp-unrestrained-2.mae
  Maestro file (output): B3LYP-SPE-Toru-SiPh3-NTf-Type-I-E-5-chkp-unrestrained-2.01.mae
  
  
  basis set:             6-31g**         
  net molecular charge:    0
  multiplicity:            1
  
  keygrid settings 
    wispc.....   7.500E-01
    ldens.....   0
    denspc....   7.500E-01
  
   grid     daf set  nls  grid set  Q type
  ------    -------  ---  --------  ------
  coarse       1      1       1        1
  medium       2      2       2        1
  fine         3      2       3        0
  ultrafine    4      2       4        1
  charge       0      1      -1        1
  gradient     5      2       4        1
  density      0      1       0        0
  DFT-fine     0      1     -13        0
  DFT-med.     0      1     -13        0
  DFT-grad     0      1     -13        0
  DFT-der2     0      1       0        0
  DFT-cphf     0      1       0        0
  LMP2-enrg    4      2       4        1
  LMP2-grad    5      2       2        1
  DFT-cphf2    0      1       0        0
  PBF-dens     0      1       0        0
  plotting     0      1       0        0
  
  idftgrdm  100
  ndftgrdm   50    0    0
  idftgrdf  111
  ndftgrdf   85    0    0
  idftgrdg  111
  ndftgrdg   80    3    0
  idftgrdu  433
  ndftgrdu  105    0    0
  idftgrdd  433
  ndftgrdd  105    0    0
  idftgrdc  433
  ndftgrdc   26    0    0
  idftgrdp  433
  ndftgrdp   18    0    0
  
  number of basis functions....         1680
  
 Input geometry:
                                   angstroms
  atom               x                 y                 z
  C1           -1.0968000000      5.5753000000     -0.7451000000 
  C2            0.1023000000      4.7004000000     -0.6274000000 
  C3           -0.9841000000      6.8135000000     -1.2396000000 
  C4            1.2940000000      5.1597000000     -1.0637000000 
  C5            0.0057000000      3.3165000000     -0.0743000000 
  C6            1.4098000000      6.5341000000     -1.6044000000 
  C7            2.4850000000      4.2951000000     -0.9954000000 
  C8            0.3293000000      7.3182000000     -1.6832000000 
  C9            1.0483000000      2.4700000000     -0.2056000000 
  C10          -1.2035000000      2.8929000000      0.6696000000 
  C11           2.3864000000      3.0238000000     -0.5753000000 
  O12           0.9498000000      1.1709000000      0.2339000000 
  Si13          3.9381000000      1.9871000000     -0.4414000000 
  C14          -1.6352000000      3.5641000000      1.7628000000 
  C15          -2.0263000000      1.7868000000      0.1106000000 
  C16          -3.0034000000      3.3184000000      2.2770000000 
  C17          -0.8128000000      4.5820000000      2.4655000000 
  C18          -3.8083000000      2.4529000000      1.6515000000 
  C19          -3.4772000000      4.0992000000      3.4368000000 
  C20          -3.3128000000      1.6558000000      0.5051000000 
  Si21         -4.5707000000      0.5818000000     -0.3615000000 
  O22          -1.5028000000      0.9836000000     -0.8723000000 
  C23          -1.3071000000      5.2493000000      3.5150000000 
  C24          -2.6780000000      5.0040000000      4.0124000000 
  P25          -0.1083000000      0.1803000000     -0.5272000000 
  O26           0.3667000000     -0.3329000000     -1.8487000000 
  N27          -0.3041000000     -1.0368000000      0.5525000000 
  C28           3.8796000000      0.6960000000     -1.7873000000 
  C29           5.4313000000      3.0645000000     -0.7010000000 
  C30           4.1529000000      1.2927000000      1.2809000000 
  C31          -5.9944000000      1.7187000000     -0.7378000000 
  C32          -3.9522000000     -0.1842000000     -1.9395000000 
  C33          -5.1581000000     -0.8049000000      0.7307000000 
  C34           4.7645000000     -0.3150000000     -1.8223000000 
  C35           2.9511000000      0.8816000000     -2.9311000000 
  C36           6.2183000000      2.9321000000     -1.7823000000 
  C37           5.7543000000      4.0948000000      0.3152000000 
  C38           3.2585000000      1.5376000000      2.2561000000 
  C39           5.3933000000      0.5485000000      1.6170000000 
  C40          -5.7669000000      2.8962000000     -1.3451000000 
  C41          -7.3755000000      1.3679000000     -0.3250000000 
  C42          -3.1872000000     -1.2856000000     -1.8885000000 
  C43          -4.3696000000      0.3502000000     -3.2598000000 
  C44          -4.8380000000     -0.8613000000      2.0344000000 
  C45          -5.9887000000     -1.8811000000      0.1378000000 
  C46           4.8064000000     -1.2326000000     -2.9792000000 
  C47           3.9740000000     -1.0514000000     -4.0101000000 
  C48           2.9986000000      0.0550000000     -3.9827000000 
  C49           7.3975000000      3.8066000000     -1.9532000000 
  C50           7.6849000000      4.7342000000     -1.0323000000 
  C51           6.8225000000      4.8855000000      0.1571000000 
  C52           3.4608000000      0.9890000000      3.6129000000 
  C53           4.5580000000      0.2780000000      3.8925000000 
  C54           5.5772000000      0.0579000000      2.8488000000 
  C55          -6.8857000000      3.8198000000     -1.6234000000 
  C56          -8.1309000000      3.4929000000     -1.2591000000 
  C57          -8.3867000000      2.2090000000     -0.5757000000 
  C58          -2.7654000000     -1.9578000000     -3.1336000000 
  C59          -3.1411000000     -1.4698000000     -4.3206000000 
  C60          -3.9792000000     -0.2574000000     -4.3866000000 
  C61          -5.3137000000     -1.9847000000      2.8688000000 
  C62          -6.0581000000     -2.9554000000      2.3267000000 
  C63          -6.4117000000     -2.9010000000      0.8942000000 
  C64          -1.3985000000     -6.6522000000     -2.0256000000 
  C65          -0.1512000000     -6.0592000000     -1.8670000000 
  C66          -0.0292000000     -4.8130000000     -1.2264000000 
  C67          -1.1850000000     -4.1668000000     -0.7619000000 
  C68          -2.4319000000     -4.7700000000     -0.9132000000 
  C69          -2.5431000000     -6.0086000000     -1.5457000000 
  C70           1.3212000000     -4.2822000000     -0.9840000000 
  N71           1.5259000000     -3.2832000000     -0.0818000000 
  S72           3.1035000000     -2.9661000000      0.5317000000 
  O73           4.0269000000     -3.6871000000     -0.3484000000 
  O74           3.1730000000     -1.5266000000      0.7253000000 
  C75           3.0904000000     -3.7675000000      2.1550000000 
  C76           2.9765000000     -2.9746000000      3.2921000000 
  C77           3.0144000000     -3.6432000000      4.5170000000 
  C78           3.1527000000     -5.0294000000      4.5272000000 
  C79           3.2331000000     -5.7108000000      3.3088000000 
  N80           3.2032000000     -5.0901000000      2.1253000000 
  N81           1.0784000000     -2.5260000000     -3.1904000000 
  C82           0.4483000000     -2.9166000000     -4.2996000000 
  C83           0.9960000000     -4.1367000000     -4.7530000000 
  C84           2.0036000000     -4.4708000000     -3.8622000000 
  C85           2.0251000000     -3.4893000000     -2.8317000000 
  H86          -2.0733000000      5.2179000000     -0.4458000000 
  H87          -1.8586000000      7.4458000000     -1.3239000000 
  H88           2.3695000000      6.9086000000     -1.9383000000 
  H89           3.4372000000      4.7101000000     -1.2964000000 
  H90           0.4140000000      8.3219000000     -2.0792000000 
  H91           0.2048000000      4.7835000000      2.1559000000 
  H92          -4.8267000000      2.3162000000      1.9970000000 
  H93          -4.4764000000      3.9468000000      3.8271000000 
  H94          -0.6901000000      5.9824000000      4.0185000000 
  H95          -3.0379000000      5.5700000000      4.8620000000 
  H96           5.4838000000     -0.4578000000     -1.0334000000 
  H97           2.2370000000      1.6940000000     -2.9346000000 
  H98           6.0046000000      2.1972000000     -2.5460000000 
  H99           5.1252000000      4.2129000000      1.1889000000 
  H100          2.3885000000      2.1514000000      2.0843000000 
  H101          6.1777000000      0.4291000000      0.8838000000 
  H102         -4.7643000000      3.1853000000     -1.6363000000 
  H103         -7.5797000000      0.4359000000      0.1830000000 
  H104         -2.8897000000     -1.7035000000     -0.9369000000 
  H105         -4.9936000000      1.2287000000     -3.3297000000 
  H106         -4.2229000000     -0.1034000000      2.4956000000 
  H107         -6.2544000000     -1.8477000000     -0.9115000000 
  H108          5.5178000000     -2.0480000000     -2.9931000000 
  H109          4.0036000000     -1.7230000000     -4.8583000000 
  H110          2.3205000000      0.1942000000     -4.8146000000 
  H111          8.0275000000      3.6949000000     -2.8261000000 
  H112          8.5479000000      5.3752000000     -1.1569000000 
  H113          7.0565000000      5.6377000000      0.8994000000 
  H114          2.7166000000      1.1629000000      4.3793000000 
  H115          4.7060000000     -0.1270000000      4.8851000000 
  H116          6.4846000000     -0.4807000000      3.0894000000 
  H117         -6.6945000000      4.7619000000     -2.1207000000 
  H118         -8.9517000000      4.1689000000     -1.4609000000 
  H119         -9.3942000000      1.9520000000     -0.2748000000 
  H120         -2.1638000000     -2.8536000000     -3.0842000000 
  H121         -2.8393000000     -1.9661000000     -5.2338000000 
  H122         -4.2847000000      0.1329000000     -5.3488000000 
  H123         -5.0506000000     -2.0236000000      3.9179000000 
  H124         -6.4025000000     -3.7811000000      2.9358000000 
  H125         -7.0150000000     -3.6868000000      0.4585000000 
  H126         -1.4789000000     -7.6179000000     -2.5149000000 
  H127          0.7389000000     -6.5627000000     -2.2321000000 
  H128         -1.1159000000     -3.2050000000     -0.2711000000 
  H129         -3.3136000000     -4.2679000000     -0.5281000000 
  H130         -3.5169000000     -6.4750000000     -1.6620000000 
  H131          2.1275000000     -5.0076000000     -0.9997000000 
  H132          2.8236000000     -1.9076000000      3.2109000000 
  H133          2.9292000000     -3.0838000000      5.4430000000 
  H134          3.1881000000     -5.5825000000      5.4600000000 
  H135          3.3249000000     -6.7938000000      3.2812000000 
  H136          0.8445000000     -1.6632000000     -2.6415000000 
  H137         -0.3489000000     -2.3250000000     -4.7251000000 
  H138          0.6758000000     -4.6815000000     -5.6294000000 
  H139          2.6622000000     -5.3276000000     -3.9096000000 
  H140          2.9150000000     -3.1904000000     -2.2979000000 
  S141         -0.5213000000     -0.8384000000      2.1351000000 
  O142         -1.4511000000      0.2394000000      2.5050000000 
  C143         -1.4332000000     -2.4277000000      2.5006000000 
  O144          0.7110000000     -0.9769000000      2.9262000000 
  F145         -0.6098000000     -3.4819000000      2.3616000000 
  F146         -1.8804000000     -2.3975000000      3.7584000000 
  F147         -2.4777000000     -2.6065000000      1.6784000000 
  H148          0.8420000000     -2.5182000000      0.1106000000 
   
  principal moments of inertia:
        amu*angstrom^2:    20750.13520    24669.20190    32010.70202
                g*cm^2: 3.44564059E-36 4.09641684E-36 5.31550146E-36
   
  rotational constants:
               cm^(-1):      0.00081241      0.00068335      0.00052662
                   GHz:      0.02435546      0.02048623      0.01578781
   
  Molecular weight:    1308.28 amu
   
  Stoichiometry: Si2C73PN4H56S2O7F3
  Molecular Point Group: C1      
  Point Group used: C1
  
  nuclear repulsion energy.......   20881.115575401 hartrees
 
 Non-default options chosen:
   SCF calculation type: DFT(b3lyp)                  
   DFT=Becke_3_Parameter/HF+Slater+Becke88+VWN+LYP (B3LYP)
   Solvation energy will be computed using PBF
     -solute cavity energy will not be included
     -surface area terms will not be included
   Highest accuracy cutoffs used in SCF
   Solvent: other                                                           
   Internal dielectric constant:    1.000
   Continuum dielectric constant:   2.380
   Solvent probe molecule radius:   2.760
  
 Temporary integer options set:
     73=  2
  
  atom       vdw   vdw2    cov     mass  grid  daf  charge   basis
  C1        1.949  1.900  0.770   12.000    Y    Y      Y    6-31g**
  C2        1.949  1.900  0.770   12.000    Y    Y      Y    6-31g**
  C3        1.949  1.900  0.770   12.000    Y    Y      Y    6-31g**
  C4        1.949  1.900  0.770   12.000    Y    Y      Y    6-31g**
  C5        1.949  1.900  0.770   12.000    Y    Y      Y    6-31g**
  C6        1.949  1.900  0.770   12.000    Y    Y      Y    6-31g**
  C7        1.949  1.900  0.770   12.000    Y    Y      Y    6-31g**
  C8        1.949  1.900  0.770   12.000    Y    Y      Y    6-31g**
  C9        1.949  1.900  0.770   12.000    Y    Y      Y    6-31g**
  C10       1.949  1.900  0.770   12.000    Y    Y      Y    6-31g**
  C11       1.949  1.900  0.770   12.000    Y    Y      Y    6-31g**
  O12       1.702  1.600  0.730   15.995    Y    Y      Y    6-31g**
  Si13      2.217  2.147  1.110   27.977    Y    Y      Y    6-31g**
  C14       1.949  1.900  0.770   12.000    Y    Y      Y    6-31g**
  C15       1.949  1.900  0.770   12.000    Y    Y      Y    6-31g**
  C16       1.949  1.900  0.770   12.000    Y    Y      Y    6-31g**
  C17       1.949  1.900  0.770   12.000    Y    Y      Y    6-31g**
  C18       1.949  1.900  0.770   12.000    Y    Y      Y    6-31g**
  C19       1.949  1.900  0.770   12.000    Y    Y      Y    6-31g**
  C20       1.949  1.900  0.770   12.000    Y    Y      Y    6-31g**
  Si21      2.217  2.147  1.110   27.977    Y    Y      Y    6-31g**
  O22       1.702  1.600  0.730   15.995    Y    Y      Y    6-31g**
  C23       1.949  1.900  0.770   12.000    Y    Y      Y    6-31g**
  C24       1.949  1.900  0.770   12.000    Y    Y      Y    6-31g**
  P25       2.147  2.074  1.060   30.974    Y    Y      Y    6-31g**
  O26       1.702  1.600  0.730   15.995    Y    Y      Y    6-31g**
  N27       1.831  1.600  0.750   14.003    Y    Y      Y    6-31g**
  C28       1.949  1.900  0.770   12.000    Y    Y      Y    6-31g**
  C29       1.949  1.900  0.770   12.000    Y    Y      Y    6-31g**
  C30       1.949  1.900  0.770   12.000    Y    Y      Y    6-31g**
  C31       1.949  1.900  0.770   12.000    Y    Y      Y    6-31g**
  C32       1.949  1.900  0.770   12.000    Y    Y      Y    6-31g**
  C33       1.949  1.900  0.770   12.000    Y    Y      Y    6-31g**
  C34       1.949  1.900  0.770   12.000    Y    Y      Y    6-31g**
  C35       1.949  1.900  0.770   12.000    Y    Y      Y    6-31g**
  C36       1.949  1.900  0.770   12.000    Y    Y      Y    6-31g**
  C37       1.949  1.900  0.770   12.000    Y    Y      Y    6-31g**
  C38       1.949  1.900  0.770   12.000    Y    Y      Y    6-31g**
  C39       1.949  1.900  0.770   12.000    Y    Y      Y    6-31g**
  C40       1.949  1.900  0.770   12.000    Y    Y      Y    6-31g**
  C41       1.949  1.900  0.770   12.000    Y    Y      Y    6-31g**
  C42       1.949  1.900  0.770   12.000    Y    Y      Y    6-31g**
  C43       1.949  1.900  0.770   12.000    Y    Y      Y    6-31g**
  C44       1.949  1.900  0.770   12.000    Y    Y      Y    6-31g**
  C45       1.949  1.900  0.770   12.000    Y    Y      Y    6-31g**
  C46       1.949  1.900  0.770   12.000    Y    Y      Y    6-31g**
  C47       1.949  1.900  0.770   12.000    Y    Y      Y    6-31g**
  C48       1.949  1.900  0.770   12.000    Y    Y      Y    6-31g**
  C49       1.949  1.900  0.770   12.000    Y    Y      Y    6-31g**
  C50       1.949  1.900  0.770   12.000    Y    Y      Y    6-31g**
  C51       1.949  1.900  0.770   12.000    Y    Y      Y    6-31g**
  C52       1.949  1.900  0.770   12.000    Y    Y      Y    6-31g**
  C53       1.949  1.900  0.770   12.000    Y    Y      Y    6-31g**
  C54       1.949  1.900  0.770   12.000    Y    Y      Y    6-31g**
  C55       1.949  1.900  0.770   12.000    Y    Y      Y    6-31g**
  C56       1.949  1.900  0.770   12.000    Y    Y      Y    6-31g**
  C57       1.949  1.900  0.770   12.000    Y    Y      Y    6-31g**
  C58       1.949  1.900  0.770   12.000    Y    Y      Y    6-31g**
  C59       1.949  1.900  0.770   12.000    Y    Y      Y    6-31g**
  C60       1.949  1.900  0.770   12.000    Y    Y      Y    6-31g**
  C61       1.949  1.900  0.770   12.000    Y    Y      Y    6-31g**
  C62       1.949  1.900  0.770   12.000    Y    Y      Y    6-31g**
  C63       1.949  1.900  0.770   12.000    Y    Y      Y    6-31g**
  C64       1.949  1.900  0.770   12.000    Y    Y      Y    6-31g**
  C65       1.949  1.900  0.770   12.000    Y    Y      Y    6-31g**
  C66       1.949  1.900  0.770   12.000    Y    Y      Y    6-31g**
  C67       1.949  1.900  0.770   12.000    Y    Y      Y    6-31g**
  C68       1.949  1.900  0.770   12.000    Y    Y      Y    6-31g**
  C69       1.949  1.900  0.770   12.000    Y    Y      Y    6-31g**
  C70       1.949  1.900  0.770   12.000    Y    Y      Y    6-31g**
  N71       1.831  1.600  0.750   14.003    Y    Y      Y    6-31g**
  S72       2.070  1.900  1.020   31.972    Y    Y      Y    6-31g**
  O73       1.702  1.600  0.730   15.995    Y    Y      Y    6-31g**
  O74       1.702  1.600  0.730   15.995    Y    Y      Y    6-31g**
  C75       1.949  1.900  0.770   12.000    Y    Y      Y    6-31g**
  C76       1.949  1.900  0.770   12.000    Y    Y      Y    6-31g**
  C77       1.949  1.900  0.770   12.000    Y    Y      Y    6-31g**
  C78       1.949  1.900  0.770   12.000    Y    Y      Y    6-31g**
  C79       1.949  1.900  0.770   12.000    Y    Y      Y    6-31g**
  N80       1.831  1.600  0.750   14.003    Y    Y      Y    6-31g**
  N81       1.831  1.600  0.750   14.003    Y    Y      Y    6-31g**
  C82       1.949  1.900  0.770   12.000    Y    Y      Y    6-31g**
  C83       1.949  1.900  0.770   12.000    Y    Y      Y    6-31g**
  C84       1.949  1.900  0.770   12.000    Y    Y      Y    6-31g**
  C85       1.949  1.900  0.770   12.000    Y    Y      Y    6-31g**
  H86       1.597  1.150  0.320    1.008    Y    Y      Y    6-31g**
  H87       1.597  1.150  0.320    1.008    Y    Y      Y    6-31g**
  H88       1.597  1.150  0.320    1.008    Y    Y      Y    6-31g**
  H89       1.597  1.150  0.320    1.008    Y    Y      Y    6-31g**
  H90       1.597  1.150  0.320    1.008    Y    Y      Y    6-31g**
  H91       1.597  1.150  0.320    1.008    Y    Y      Y    6-31g**
  H92       1.597  1.150  0.320    1.008    Y    Y      Y    6-31g**
  H93       1.597  1.150  0.320    1.008    Y    Y      Y    6-31g**
  H94       1.597  1.150  0.320    1.008    Y    Y      Y    6-31g**
  H95       1.597  1.150  0.320    1.008    Y    Y      Y    6-31g**
  H96       1.597  1.150  0.320    1.008    Y    Y      Y    6-31g**
  H97       1.597  1.150  0.320    1.008    Y    Y      Y    6-31g**
  H98       1.597  1.150  0.320    1.008    Y    Y      Y    6-31g**
  H99       1.597  1.150  0.320    1.008    Y    Y      Y    6-31g**
  H100      1.597  1.150  0.320    1.008    Y    Y      Y    6-31g**
  H101      1.597  1.150  0.320    1.008    Y    Y      Y    6-31g**
  H102      1.597  1.150  0.320    1.008    Y    Y      Y    6-31g**
  H103      1.597  1.150  0.320    1.008    Y    Y      Y    6-31g**
  H104      1.597  1.150  0.320    1.008    Y    Y      Y    6-31g**
  H105      1.597  1.150  0.320    1.008    Y    Y      Y    6-31g**
  H106      1.597  1.150  0.320    1.008    Y    Y      Y    6-31g**
  H107      1.597  1.150  0.320    1.008    Y    Y      Y    6-31g**
  H108      1.597  1.150  0.320    1.008    Y    Y      Y    6-31g**
  H109      1.597  1.150  0.320    1.008    Y    Y      Y    6-31g**
  H110      1.597  1.150  0.320    1.008    Y    Y      Y    6-31g**
  H111      1.597  1.150  0.320    1.008    Y    Y      Y    6-31g**
  H112      1.597  1.150  0.320    1.008    Y    Y      Y    6-31g**
  H113      1.597  1.150  0.320    1.008    Y    Y      Y    6-31g**
  H114      1.597  1.150  0.320    1.008    Y    Y      Y    6-31g**
  H115      1.597  1.150  0.320    1.008    Y    Y      Y    6-31g**
  H116      1.597  1.150  0.320    1.008    Y    Y      Y    6-31g**
  H117      1.597  1.150  0.320    1.008    Y    Y      Y    6-31g**
  H118      1.597  1.150  0.320    1.008    Y    Y      Y    6-31g**
  H119      1.597  1.150  0.320    1.008    Y    Y      Y    6-31g**
  H120      1.597  1.150  0.320    1.008    Y    Y      Y    6-31g**
  H121      1.597  1.150  0.320    1.008    Y    Y      Y    6-31g**
  H122      1.597  1.150  0.320    1.008    Y    Y      Y    6-31g**
  H123      1.597  1.150  0.320    1.008    Y    Y      Y    6-31g**
  H124      1.597  1.150  0.320    1.008    Y    Y      Y    6-31g**
  H125      1.597  1.150  0.320    1.008    Y    Y      Y    6-31g**
  H126      1.597  1.150  0.320    1.008    Y    Y      Y    6-31g**
  H127      1.597  1.150  0.320    1.008    Y    Y      Y    6-31g**
  H128      1.597  1.150  0.320    1.008    Y    Y      Y    6-31g**
  H129      1.597  1.150  0.320    1.008    Y    Y      Y    6-31g**
  H130      1.597  1.150  0.320    1.008    Y    Y      Y    6-31g**
  H131      1.597  1.150  0.320    1.008    Y    Y      Y    6-31g**
  H132      1.597  1.150  0.320    1.008    Y    Y      Y    6-31g**
  H133      1.597  1.150  0.320    1.008    Y    Y      Y    6-31g**
  H134      1.597  1.150  0.320    1.008    Y    Y      Y    6-31g**
  H135      1.597  1.150  0.320    1.008    Y    Y      Y    6-31g**
  H136      1.597  1.150  0.320    1.008    Y    Y      Y    6-31g**
  H137      1.597  1.150  0.320    1.008    Y    Y      Y    6-31g**
  H138      1.597  1.150  0.320    1.008    Y    Y      Y    6-31g**
  H139      1.597  1.150  0.320    1.008    Y    Y      Y    6-31g**
  H140      1.597  1.150  0.320    1.008    Y    Y      Y    6-31g**
  S141      2.070  1.900  1.020   31.972    Y    Y      Y    6-31g**
  O142      1.702  1.600  0.730   15.995    Y    Y      Y    6-31g**
  C143      1.949  1.900  0.770   12.000    Y    Y      Y    6-31g**
  O144      1.702  1.600  0.730   15.995    Y    Y      Y    6-31g**
  F145      1.736  1.682  0.720   18.998    Y    Y      Y    6-31g**
  F146      1.736  1.682  0.720   18.998    Y    Y      Y    6-31g**
  F147      1.736  1.682  0.720   18.998    Y    Y      Y    6-31g**
  H148      1.597  1.150  0.320    1.008    Y    Y      Y    6-31g**
  
  Peak memory usage:    528 Mb
  
  end of program pre
   
 Time(pre)  user:        0.0  user+sys:        0.0  wallclock:        0.8
  
  start of program onee
  
  smallest eigenvalue of S:    2.281E-04
  number of canonical orbitals.....         1672
  Peak memory usage:    707 Mb
  
  end of program onee
   
 Time(onee)  user:       29.0  user+sys:       30.0  wallclock:       86.3
  
  start of program hfig
  
  initial wavefunction generated automatically from atomic wavefunctions
 
  Irreducible     Total no   No of occupied orbitals 
  representation  orbitals   Shell_1  Shell_2    ...
  No Symm         1672        340
  ------------------------
  Orbital occupation/shell    1.000
 
  Peak memory usage:    646 Mb
  
  end of program hfig
   
 Time(hfig)  user:       42.0  user+sys:       43.0  wallclock:      169.1
  
  start of program probe
  
  Peak memory usage:    640 Mb
  
  end of program probe
   
 Time(probe)  user:       36.0  user+sys:       36.0  wallclock:      176.4
  
  start of program grid
  
  
   grid     grid set  grid #  grid sym
  ------    --------  ------  --------
  coarse        0        0        1
  medium        2        1        1
  fine          0        0        1
  ultrafine     4        2        1
  charge       -1        3        1
  gradient      4        2        1
  density       0        0        1
  DFT-fine    -13        4        1
  DFT-med.    -13        4        1
  DFT-grad    -13        4        1
  DFT-der2      0        0        1
  DFT-cphf      0        0        1
  LMP2-enrg     4        2        1
  LMP2-grad     2        1        1
  DFT-cphf2     0        0        1
  PBF-dens      0        0        1
  plotting      0        0        1
  
   
  number of gridpoints: 
     atom        C1       C2       C3       C4       C5       C6       C7
  grid # 1       97      102       94      102      100       96       92
  grid # 2      337      359      337      367      357      336      335
  grid # 3       36       29       42       43       16       45       22
  grid # 4    14816    14816    14816    14816    14816    14816    14816
   
  number of gridpoints: 
     atom        C8       C9      C10      C11      O12     Si13      C14
  grid # 1       94       95      100      100      112      474      101
  grid # 2      336      351      354      358      431      474      356
  grid # 3       46       13       10        8       33        7       18
  grid # 4    14816    14816    14816    14816    23902    22912    14816
   
  number of gridpoints: 
     atom       C15      C16      C17      C18      C19      C20     Si21
  grid # 1       98      101       97       92       97      100      469
  grid # 2      357      365      338      330      339      357      469
  grid # 3       14       30       31       16       43        6       10
  grid # 4    14816    14816    14816    14816    14816    14816    22912
   
  number of gridpoints: 
     atom       O22      C23      C24      P25      O26      N27      C28
  grid # 1      112       95       94      444      116      108      100
  grid # 2      443      339      339      444      451      389      358
  grid # 3       69       39       46        6       68       11       10
  grid # 4    23902    14816    14816    23204    23902    15000    14816
   
  number of gridpoints: 
     atom       C29      C30      C31      C32      C33      C34      C35
  grid # 1      101      100      101      101      101       93       96
  grid # 2      356      357      359      355      357      329      333
  grid # 3        9        8       12       10        7        9       13
  grid # 4    14816    14816    14816    14816    14816    14816    14816
   
  number of gridpoints: 
     atom       C36      C37      C38      C39      C40      C41      C42
  grid # 1       92       94       93       96       92       97       92
  grid # 2      336      334      334      333      335      339      333
  grid # 3       24       19       15       17       16       34       13
  grid # 4    14816    14816    14816    14816    14816    14816    14816
   
  number of gridpoints: 
     atom       C43      C44      C45      C46      C47      C48      C49
  grid # 1       96       92       94       92       93       93       94
  grid # 2      339      331      332      331      332      331      335
  grid # 3       31       17       11       17       23       21       42
  grid # 4    14816    14816    14816    14816    14816    14816    14816
   
  number of gridpoints: 
     atom       C50      C51      C52      C53      C54      C55      C56
  grid # 1       94       93       93       93       94       93       94
  grid # 2      335      335      331      331      335      335      335
  grid # 3       44       36       23       27       26       36       46
  grid # 4    14816    14816    14816    14816    14816    14816    14816
   
  number of gridpoints: 
     atom       C57      C58      C59      C60      C61      C62      C63
  grid # 1       94       94       93       94       93       93       92
  grid # 2      336      335      335      336      331      334      333
  grid # 3       44       24       35       42       27       32       22
  grid # 4    14816    14816    14816    14816    14816    14816    14816
   
  number of gridpoints: 
     atom       C64      C65      C66      C67      C68      C69      C70
  grid # 1       96       96      100       95       96       96       92
  grid # 2      333      336      360      327      330      332      324
  grid # 3       43       34       26       21       25       40        7
  grid # 4    14816    14816    14816    14816    14816    14816    14816
   
  number of gridpoints: 
     atom       N71      S72      O73      O74      C75      C76      C77
  grid # 1       99      444      118      118       98       95       96
  grid # 2      354      444      483      468      360      329      331
  grid # 3       15       13      173       57       30       28       36
  grid # 4    15000    32664    23902    23902    14816    14816    14816
   
  number of gridpoints: 
     atom       C78      C79      N80      N81      C82      C83      C84
  grid # 1       97       96      112       96       94       93       93
  grid # 2      333      340      424      342      329      330      327
  grid # 3       44       43      111       12       17       20       10
  grid # 4    14816    14816    15000    15000    14816    14816    14816
   
  number of gridpoints: 
     atom       C85      H86      H87      H88      H89      H90      H91
  grid # 1       92      113      118      118      110      118      112
  grid # 2      324      432      451      446      428      453      432
  grid # 3        6      222      411      362      190      423      225
  grid # 4    14816    16416    16416    16416    16416    16416    16416
   
  number of gridpoints: 
     atom       H92      H93      H94      H95      H96      H97      H98
  grid # 1      112      118      118      118      111      111      112
  grid # 2      425      443      450      450      421      426      436
  grid # 3      188      362      408      417      161      214      244
  grid # 4    16416    16416    16416    16416    16416    16416    16416
   
  number of gridpoints: 
     atom       H99     H100     H101     H102     H103     H104     H105
  grid # 1      113      110      109      110      111      105      112
  grid # 2      437      424      426      433      430      407      429
  grid # 3      270      153      216      208      232       56      228
  grid # 4    16416    16416    16416    16416    16416    16416    16416
   
  number of gridpoints: 
     atom      H106     H107     H108     H109     H110     H111     H112
  grid # 1      108      113      117      117      117      118      118
  grid # 2      424      435      443      446      449      453      453
  grid # 3      138      259      342      339      349      420      425
  grid # 4    16416    16416    16416    16416    16416    16416    16416
   
  number of gridpoints: 
     atom      H113     H114     H115     H116     H117     H118     H119
  grid # 1      118      117      117      117      118      118      118
  grid # 2      452      445      447      451      451      453      453
  grid # 3      420      345      343      400      406      423      425
  grid # 4    16416    16416    16416    16416    16416    16416    16416
   
  number of gridpoints: 
     atom      H120     H121     H122     H123     H124     H125     H126
  grid # 1      109      115      118      116      118      117      118
  grid # 2      426      443      453      447      452      451      450
  grid # 3      142      324      424      350      416      393      411
  grid # 4    16416    16416    16416    16416    16416    16416    16416
   
  number of gridpoints: 
     atom      H127     H128     H129     H130     H131     H132     H133
  grid # 1      111      102      112      118      107      107      117
  grid # 2      436      401      428      450      418      413      447
  grid # 3      248       33      193      400      152       89      361
  grid # 4    16416    16416    16416    16416    16416    16416    16416
   
  number of gridpoints: 
     atom      H134     H135     H136     H137     H138     H139     H140
  grid # 1      118      118      100      111      117      115      103
  grid # 2      452      454      396      431      459      449      411
  grid # 3      428      459       83      202      442      356       81
  grid # 4    16416    16416    16416    16416    16416    16416    16416
   
  number of gridpoints: 
     atom      S141     O142     C143     O144     F145     F146     F147
  grid # 1      441      119       91      117      525      531      513
  grid # 2      441      482      324      478      525      531      513
  grid # 3        8      125        7      106      154      244       59
  grid # 4    32664    23902    14816    23902    23920    23920    23920
   
  number of gridpoints: 
     atom      H148    total
  grid # 1       98    18396
  grid # 2      393    57852
  grid # 3       38    19362
  grid # 4    16416  2434294
   
  Peak memory usage:    671 Mb
  
  end of program grid
   
 Time(grid)  user:      378.0  user+sys:      381.0  wallclock:     1954.4
  
  start of program rwr
  
  Peak memory usage:    661 Mb
  
  end of program rwr
   
 Time(rwr)  user:       77.0  user+sys:       84.0  wallclock:      428.4
  
  start of program scf
  
 number of electrons..........        680
 number of alpha electrons....        340
 number of beta electrons.....        340
 number of orbitals, total....       1672
 number of doubly-occ'd orbs..        340
 number of open shell orbs....          0
 number of occupied orbitals..        340
 number of virtual orbitals...       1332
 number of hamiltonians.......          1
 number of shells.............          1
 SCF type: DFT=Becke_3_Parameter/HF+Slater+Becke88+VWN+LYP (B3LYP)
  
       i  u  d  i  g                   
       t  p  i  c  r                                 RMS    maximum
       e  d  i  u  i                       energy  density   DIIS  
       r  t  s  t  d       total energy    change  change    error 
  
etot    1  N  N  1  U   -5563.86077835314           5.6E-03  1.1E-01
etot    2  N  Y  1  U   -5479.73481663229 -8.4E+01  2.1E-02  1.6E-01
etot    3  N  Y  1  U   -5171.27852746984 -3.1E+02  1.9E-02  4.6E-01
etot    4  N  Y  1  U   -5534.80388540545  3.6E+02  4.6E-03  2.8E-01
etot    5  N  Y  1  U   -5566.73278367547  3.2E+01  1.7E-02  1.1E-01
etot    6  N  Y  1  U   -5443.45688033030 -1.2E+02  1.7E-02  3.8E-01
etot    7  N  Y  1  U   -5571.80478224908  1.3E+02  1.5E-03  6.7E-02
etot    8  N  Y  1  U   -5575.01752568544  3.2E+00  1.3E-03  5.3E-02
etot    9  N  Y  1  U   -5575.88294007386  8.7E-01  8.8E-04  2.6E-02
etot   10  N  Y  1  U   -5577.07672895376  1.2E+00  2.5E-04  1.9E-02
etot   11  N  Y  1  U   -5577.18198605450  1.1E-01  1.4E-04  4.9E-03
etot   12  N  Y  1  U   -5577.19702148174  1.5E-02  6.4E-05  4.0E-03
etot   13  N  Y  1  U   -5577.20573102258  8.7E-03  3.7E-05  1.7E-03
etot   14  N  Y  1  U   -5577.20825477927  2.5E-03  2.5E-05  7.9E-04
etot   15  N  Y  1  U   -5577.20887796920  6.2E-04  8.2E-06  4.6E-04
etot   16  N  Y  1  U   -5577.20901562582  1.4E-04  3.8E-06  2.0E-04
etot   17  N  N  1  U   -5577.20903722909  2.2E-05  0.0E+00  0.0E+00
  
  
 Energy components, in hartrees:
   (A)  Nuclear repulsion............   20881.11557540114
   (E)  Total one-electron terms.....  -49296.01626233911
   (F)    Electron-nuclear...........  -54831.10812317721
   (H)    Kinetic....................    5535.09186083806
   (I)  Total two-electron terms.....   22837.69164970888
   (J)    Coulomb....................   23490.91172086354
   (K)    Exchange+Correlation.......    -653.22007115466
   (L)  Electronic energy............  -26458.32461263023  (E+I)
   (M)  -V/T.........................       2.00760911968  (-(A+F+I)/H)
   (N)  Total energy.................   -5577.20903722909  (A+L)
  
 SCFE: SCF energy: DFT(b3lyp)     -5577.20903722909 hartrees   iterations:  17
  
 
 HOMO energy:    -0.19576
 LUMO energy:    -0.10204
 
  Orbital energies (hartrees): 
   -89.12469   -89.09782   -77.23913   -66.10769   -66.10564   -24.73641
   -24.73467   -24.73418   -19.19282   -19.18995   -19.16174   -19.15410
   -19.12493   -19.12353   -19.10736   -14.39719   -14.39175   -14.36205
   -14.31549   -10.43652   -10.29998   -10.26484   -10.25170   -10.25019
   -10.24932   -10.24617   -10.23382   -10.22668   -10.22566   -10.22143
   -10.21666   -10.21658   -10.21369   -10.21206   -10.21046   -10.20769
   -10.20707   -10.20512   -10.20085   -10.19744   -10.19517   -10.19361
   -10.19246   -10.18902   -10.18813   -10.18621   -10.18585   -10.18511
   -10.18494   -10.18458   -10.18426   -10.18416   -10.18412   -10.18387
   -10.18353   -10.18309   -10.18281   -10.18225   -10.18199   -10.18170
   -10.18163   -10.18071   -10.18041   -10.18025   -10.18016   -10.18007
   -10.17997   -10.17995   -10.17985   -10.17976   -10.17963   -10.17923
   -10.17916   -10.17874   -10.17793   -10.17792   -10.17718   -10.17498
   -10.17498   -10.17429   -10.17402   -10.17305   -10.17232   -10.17038
   -10.16996   -10.16836   -10.16534   -10.16437   -10.16362   -10.16281
   -10.16086   -10.15729    -8.15067    -8.12255    -6.68327    -6.11611
    -6.11464    -6.11316    -6.08703    -6.08659    -6.08638    -5.25441
    -5.25189    -4.84789    -4.84697    -4.84494    -3.61318    -3.61304
    -3.61296    -3.61111    -3.61055    -3.61003    -1.31311    -1.22616
    -1.22486    -1.12734    -1.09906    -1.08758    -1.05812    -1.01857
    -0.99920    -0.97801    -0.97285    -0.96830    -0.96329    -0.87793
    -0.87549    -0.86808    -0.85423    -0.83737    -0.83427    -0.83377
    -0.83261    -0.83000    -0.82441    -0.82356    -0.81414    -0.80187
    -0.80149    -0.79868    -0.78673    -0.78293    -0.76528    -0.74935
    -0.74774    -0.74426    -0.74100    -0.73665    -0.73620    -0.73455
    -0.73348    -0.73345    -0.72968    -0.72872    -0.72804    -0.72667
    -0.72572    -0.72408    -0.72373    -0.72321    -0.71956    -0.71543
    -0.70067    -0.67925    -0.66613    -0.65282    -0.63510    -0.63467
    -0.61805    -0.61794    -0.61373    -0.61206    -0.60874    -0.60534
    -0.60091    -0.59382    -0.59189    -0.59172    -0.58983    -0.58957
    -0.58884    -0.58692    -0.58641    -0.58541    -0.58256    -0.57919
    -0.57829    -0.57735    -0.57593    -0.57488    -0.57382    -0.56918
    -0.56566    -0.56330    -0.55181    -0.54750    -0.54272    -0.52779
    -0.52615    -0.51994    -0.51614    -0.50962    -0.50314    -0.50206
    -0.50196    -0.49984    -0.49896    -0.49606    -0.49507    -0.49329
    -0.49161    -0.48128    -0.48010    -0.47548    -0.46853    -0.46648
    -0.46527    -0.46318    -0.46273    -0.46084    -0.45917    -0.45713
    -0.45713    -0.45087    -0.45008    -0.44623    -0.44464    -0.44449
    -0.44390    -0.44146    -0.44012    -0.43850    -0.43812    -0.43580
    -0.43337    -0.43272    -0.43108    -0.43059    -0.42970    -0.42859
    -0.42844    -0.42638    -0.42616    -0.42500    -0.42357    -0.42344
    -0.42189    -0.42150    -0.42057    -0.41902    -0.41786    -0.41451
    -0.41405    -0.41290    -0.41180    -0.41109    -0.41067    -0.40983
    -0.40759    -0.40621    -0.40238    -0.39742    -0.39476    -0.38954
    -0.38742    -0.38638    -0.38474    -0.38242    -0.38194    -0.37833
    -0.37496    -0.37398    -0.36758    -0.36722    -0.36580    -0.36073
    -0.35921    -0.35518    -0.35472    -0.35314    -0.35054    -0.34898
    -0.34825    -0.34572    -0.34429    -0.34017    -0.33941    -0.33612
    -0.33462    -0.33144    -0.33094    -0.32994    -0.32861    -0.32858
    -0.32839    -0.32691    -0.32440    -0.32195    -0.32030    -0.31895
    -0.31558    -0.31458    -0.30598    -0.30568    -0.30293    -0.29913
    -0.29646    -0.29337    -0.28974    -0.28743    -0.28571    -0.28433
    -0.28332    -0.28220    -0.28159    -0.28100    -0.27918    -0.27619
    -0.27178    -0.27154    -0.26542    -0.26450    -0.25054    -0.24508
    -0.24481    -0.24381    -0.24301    -0.24222    -0.24202    -0.23947
    -0.23893    -0.23495    -0.23249    -0.23200    -0.23085    -0.22933
    -0.22571    -0.22269    -0.21608    -0.19576    -0.10204    -0.05405
    -0.04031    -0.03505    -0.02394    -0.02059    -0.01496    -0.01428
    -0.01037    -0.00363
 
  Peak memory usage:    861 Mb
  
  end of program scf
   
 Time(scf)  user:    13043.0  user+sys:    13194.0  wallclock:    34522.8
  
  start of program ch
  
  gridpoints used for charge fit        16821
    out of a possible maximum of        19362
  
   Electrostatic potential fitting constrained to reproduce
     total charge:                yes
     dipole moment:               no 
     traceless quadrupole moment: no 
     traceless octapole moment:   no 
  
  Atomic charges from electrostatic potential: 
   
 Atom       C1           C2           C3           C4           C5      
 Charge   -0.05688     -0.05062     -0.17255      0.21856      0.00901
   
 Atom       C6           C7           C8           C9           C10     
 Charge   -0.21972     -0.36620     -0.09153     -0.00854     -0.16701
   
 Atom       C11          O12          Si13         C14          C15     
 Charge    0.22272     -0.18914     -0.33720      0.08690      0.39060
   
 Atom       C16          C17          C18          C19          C20     
 Charge    0.35742     -0.13047     -0.47740     -0.30579     -0.04748
   
 Atom       Si21         O22          C23          C24          P25     
 Charge   -0.04811     -0.42227     -0.18117     -0.06424      1.09176
   
 Atom       O26          N27          C28          C29          C30     
 Charge   -0.64837     -0.58056      0.03424      0.27693      0.17102
   
 Atom       C31          C32          C33          C34          C35     
 Charge   -0.00804      0.27712      0.22354      0.04762     -0.02960
   
 Atom       C36          C37          C38          C39          C40     
 Charge   -0.20732     -0.23978     -0.16221     -0.12692      0.03110
   
 Atom       C41          C42          C43          C44          C45     
 Charge   -0.10453     -0.16498     -0.26335     -0.27973     -0.15641
   
 Atom       C46          C47          C48          C49          C50     
 Charge   -0.27971     -0.01814     -0.22150     -0.11165     -0.14579
   
 Atom       C51          C52          C53          C54          C55     
 Charge   -0.08762     -0.11839     -0.10436     -0.16848     -0.22290
   
 Atom       C56          C57          C58          C59          C60     
 Charge   -0.07235     -0.16044     -0.10132     -0.16461     -0.07923
   
 Atom       C61          C62          C63          C64          C65     
 Charge   -0.07682     -0.18328     -0.07010     -0.13293     -0.20002
   
 Atom       C66          C67          C68          C69          C70     
 Charge    0.22836     -0.10858     -0.03096     -0.11655     -0.06035
   
 Atom       N71          S72          O73          O74          C75     
 Charge   -0.31114      0.61050     -0.42130     -0.37279      0.60604
   
 Atom       C76          C77          C78          C79          N80     
 Charge   -0.47700      0.20805     -0.42645      0.38736     -0.60319
   
 Atom       N81          C82          C83          C84          C85     
 Charge    0.04378     -0.12090     -0.13836     -0.27571      0.03873
   
 Atom       H86          H87          H88          H89          H90     
 Charge    0.07703      0.13290      0.13176      0.17232      0.11857
   
 Atom       H91          H92          H93          H94          H95     
 Charge    0.11743      0.20197      0.15411      0.13379      0.11281
   
 Atom       H96          H97          H98          H99          H100    
 Charge    0.08742      0.09892      0.11906      0.13754      0.13961
   
 Atom       H101         H102         H103         H104         H105    
 Charge    0.11035      0.07525      0.08973      0.09446      0.11505
   
 Atom       H106         H107         H108         H109         H110    
 Charge    0.18805      0.07825      0.13727      0.08833      0.12033
   
 Atom       H111         H112         H113         H114         H115    
 Charge    0.11725      0.12061      0.11357      0.12002      0.10074
   
 Atom       H116         H117         H118         H119         H120    
 Charge    0.12210      0.13041      0.11149      0.12499      0.08646
   
 Atom       H121         H122         H123         H124         H125    
 Charge    0.11448      0.11577      0.11518      0.12594      0.10240
   
 Atom       H126         H127         H128         H129         H130    
 Charge    0.13367      0.13788      0.02853      0.07300      0.12739
   
 Atom       H131         H132         H133         H134         H135    
 Charge    0.13753      0.25234      0.09043      0.17630      0.04358
   
 Atom       H136         H137         H138         H139         H140    
 Charge    0.26438      0.16406      0.14871      0.17989      0.15746
   
 Atom       S141         O142         C143         O144         F145    
 Charge    0.70342     -0.47094      0.39412     -0.46112     -0.14649
   
 Atom       F146         F147         H148    
 Charge   -0.12754     -0.09119      0.26052
  
  sum of atomic charges:     0.000000
   
 RMS Error   8.94E-04 hartrees
 
  Peak memory usage:    589 Mb
  
  end of program ch
   
 Time(ch)  user:       20.0  user+sys:       21.0  wallclock:       52.5
  
  start of program post
  
  Writing input files for PBF
  Peak memory usage:    536 Mb
  
  end of program post
   
 Time(post)  user:        0.0  user+sys:        0.0  wallclock:        0.6

  start of program pbf

Pbf Version 4.00

Molecular surface area:      846.45422   [A2]
Reaction field energy:       -14.60754   [kT]
  Peak memory usage: 558 Mb

  end of program pbf

 Time(pbf)  user:        9.0  user+sys:        9.1  wallclock:       19.8
  
  start of program solv
  
   number of surface charges from PBF   13320
   sum of surface charges     -0.00029
   
  nuclear repulsion energy.......   20881.115575401 hartrees
  Peak memory usage:    701 Mb
  
  end of program solv
   
 Time(solv)  user:       39.0  user+sys:       39.0  wallclock:       98.8
  
  start of program scf
  
  
       i  u  d  i  g                   
       t  p  i  c  r                                 RMS    maximum
       e  d  i  u  i                       energy  density   DIIS  
       r  t  s  t  d       total energy    change  change    error 
  
etot    1  N  N  1  U   -5577.24015084034           5.7E-05  1.0E-03
etot    2  N  Y  1  U   -5577.24036940715  2.2E-04  2.4E-05  1.4E-03
etot    3  N  Y  1  U   -5577.24094267320  5.7E-04  8.5E-06  5.7E-04
etot    4  N  Y  1  U   -5577.24105374821  1.1E-04  3.6E-06  1.8E-04
etot    5  N  N  1  U   -5577.24106846487  1.5E-05  0.0E+00  0.0E+00
  
  
 Energy components, in hartrees:
   (A)  Total zero-electron terms....   20884.05664571523
   (B)    Nuclear-nuclear............   20881.11557540114
   (C)    Nuclear-solvent............       2.94107031409
   (E)  Total one-electron terms.....  -49300.51742116901
   (F)    Electron-nuclear...........  -54832.69128973234
   (G)    Electron-solvent...........      -2.97400981589
   (H)    Kinetic....................    5535.14787837923
   (I)  Total two-electron terms.....   22839.21970698891
   (J)    Coulomb....................   23492.45742622549
   (K)    Exchange+Correlation.......    -653.23771923658
   (L)  Electronic energy............  -26461.29771418010  (E+I)
   (N)  Total quantum mech. energy...   -5577.24106846487  (A+L)
   (O)  Gas phase energy.............   -5577.20903722909
   (P)  Solution phase energy........   -5577.22459871397  (Q+R+S)
   (Q)    Total solute energy........   -5577.20812896307  (N-C-G)
   (R)    Total solvent energy.......      -0.01646975090  (C/2+G/2)
   (S)    Solute cavity energy.......       0.00000000000
   (U)  Reorganization energy........       0.00090826602  (Q-O)
   (V)  Solvation energy.............      -0.01556148488  (P-O)
  
 SCFE:  Solution phase energy: DFT(b3lyp)      -5577.22459871397 hartrees
        SCF iterations:   5
  
 
 HOMO energy:    -0.20007
 LUMO energy:    -0.09947
 
  Orbital energies (hartrees): 
   -89.12668   -89.10382   -77.24259   -66.11102   -66.10936   -24.74010
   -24.73916   -24.73885   -19.19711   -19.19386   -19.16301   -19.15634
   -19.13029   -19.12913   -19.10966   -14.39733   -14.38875   -14.35969
   -14.32002   -10.44148   -10.29702   -10.26455   -10.25641   -10.25392
   -10.24618   -10.24332   -10.23111   -10.22442   -10.22300   -10.21802
   -10.21555   -10.21314   -10.20881   -10.20804   -10.20634   -10.20591
   -10.20461   -10.20264   -10.20225   -10.20182   -10.19944   -10.19762
   -10.19706   -10.19261   -10.19206   -10.18898   -10.18889   -10.18846
   -10.18805   -10.18755   -10.18731   -10.18707   -10.18582   -10.18572
   -10.18545   -10.18544   -10.18517   -10.18501   -10.18475   -10.18469
   -10.18461   -10.18405   -10.18389   -10.18388   -10.18331   -10.18303
   -10.18293   -10.18290   -10.18186   -10.18176   -10.18155   -10.18154
   -10.18147   -10.18133   -10.18005   -10.17968   -10.17926   -10.17833
   -10.17697   -10.17672   -10.17610   -10.17588   -10.17517   -10.17416
   -10.17317   -10.17257   -10.16882   -10.16753   -10.16697   -10.16621
   -10.16337   -10.16113    -8.15259    -8.12853    -6.68675    -6.11800
    -6.11662    -6.11505    -6.09302    -6.09255    -6.09239    -5.25773
    -5.25560    -4.85136    -4.85045    -4.84841    -3.61650    -3.61636
    -3.61627    -3.61482    -3.61427    -3.61373    -1.31760    -1.23099
    -1.22891    -1.12933    -1.10364    -1.09316    -1.06214    -1.02087
    -0.99638    -0.98428    -0.97153    -0.97073    -0.96286    -0.88241
    -0.87299    -0.87219    -0.85824    -0.84034    -0.83784    -0.83669
    -0.83484    -0.83211    -0.82770    -0.82154    -0.81786    -0.80573
    -0.79961    -0.79536    -0.78695    -0.78429    -0.76255    -0.75304
    -0.74733    -0.74495    -0.74376    -0.74032    -0.73918    -0.73714
    -0.73695    -0.73573    -0.73176    -0.73157    -0.73121    -0.72905
    -0.72902    -0.72788    -0.72736    -0.72593    -0.72286    -0.71401
    -0.70455    -0.67773    -0.67028    -0.65047    -0.63867    -0.63333
    -0.62096    -0.61731    -0.61572    -0.61196    -0.61042    -0.60517
    -0.60184    -0.59686    -0.59520    -0.59370    -0.59276    -0.59177
    -0.59015    -0.58885    -0.58853    -0.58683    -0.58465    -0.58268
    -0.58098    -0.57949    -0.57827    -0.57738    -0.57226    -0.57198
    -0.56715    -0.56415    -0.55429    -0.54665    -0.54562    -0.52885
    -0.52763    -0.52275    -0.51940    -0.50791    -0.50549    -0.50437
    -0.50288    -0.50126    -0.49937    -0.49820    -0.49737    -0.49630
    -0.49277    -0.48411    -0.47907    -0.47628    -0.47094    -0.46971
    -0.46835    -0.46536    -0.46318    -0.46235    -0.45911    -0.45836
    -0.45563    -0.45279    -0.45100    -0.44890    -0.44691    -0.44596
    -0.44424    -0.44371    -0.44206    -0.44120    -0.43901    -0.43759
    -0.43689    -0.43553    -0.43390    -0.43237    -0.43180    -0.43129
    -0.43027    -0.42845    -0.42801    -0.42689    -0.42620    -0.42489
    -0.42452    -0.42174    -0.42103    -0.42031    -0.41984    -0.41568
    -0.41474    -0.41364    -0.41341    -0.41282    -0.41136    -0.41032
    -0.40930    -0.40801    -0.40475    -0.40062    -0.39279    -0.39234
    -0.38906    -0.38849    -0.38515    -0.38456    -0.38244    -0.38059
    -0.37828    -0.37219    -0.37088    -0.36865    -0.36693    -0.36273
    -0.35937    -0.35825    -0.35736    -0.35461    -0.35431    -0.35227
    -0.35155    -0.34868    -0.34654    -0.34335    -0.34248    -0.33932
    -0.33761    -0.33425    -0.33336    -0.33211    -0.33153    -0.33130
    -0.33018    -0.32909    -0.32605    -0.32526    -0.32333    -0.32195
    -0.31893    -0.31731    -0.30949    -0.30667    -0.30573    -0.30321
    -0.30022    -0.29669    -0.29326    -0.29040    -0.28795    -0.28637
    -0.28602    -0.28477    -0.28341    -0.28199    -0.28065    -0.27745
    -0.27558    -0.26966    -0.26840    -0.26292    -0.25534    -0.24831
    -0.24773    -0.24756    -0.24614    -0.24594    -0.24334    -0.24247
    -0.24128    -0.23780    -0.23481    -0.23461    -0.23312    -0.23209
    -0.22927    -0.22690    -0.22019    -0.20007    -0.09947    -0.05275
    -0.04453    -0.03323    -0.02787    -0.01961    -0.01677    -0.01394
    -0.01224    -0.00660
 
  Peak memory usage:    859 Mb
  
  end of program scf
   
 Time(scf)  user:     3116.0  user+sys:     3150.0  wallclock:     8127.7
  
  start of program sole
  
    SCRF                   solvation energy
  iteration          Hartrees            kcal/mol
     0               0.0000000            0.0000
     1              -0.0155615           -9.7650
  
  solvation energy not yet converged... 
  
  Peak memory usage:    635 Mb
  
  end of program sole
   
 Time(sole)  user:        0.0  user+sys:        0.0  wallclock:        0.5
  
  start of program ch
  
  gridpoints used for charge fit        16821
    out of a possible maximum of        16821
  
   Electrostatic potential fitting constrained to reproduce
     total charge:                yes
     dipole moment:               no 
     traceless quadrupole moment: no 
     traceless octapole moment:   no 
  
  Atomic charges from electrostatic potential: 
   
 Atom       C1           C2           C3           C4           C5      
 Charge   -0.05507     -0.05425     -0.18217      0.22152      0.00856
   
 Atom       C6           C7           C8           C9           C10     
 Charge   -0.22754     -0.37897     -0.09663     -0.01143     -0.16348
   
 Atom       C11          O12          Si13         C14          C15     
 Charge    0.24086     -0.18333     -0.35760      0.08484      0.38284
   
 Atom       C16          C17          C18          C19          C20     
 Charge    0.36126     -0.13253     -0.48711     -0.31699     -0.03393
   
 Atom       Si21         O22          C23          C24          P25     
 Charge   -0.05669     -0.41476     -0.18885     -0.06903      1.07187
   
 Atom       O26          N27          C28          C29          C30     
 Charge   -0.63736     -0.55423      0.03595      0.28366      0.17077
   
 Atom       C31          C32          C33          C34          C35     
 Charge   -0.01249      0.27607      0.22460      0.04827     -0.02774
   
 Atom       C36          C37          C38          C39          C40     
 Charge   -0.21237     -0.24082     -0.15620     -0.13215      0.03799
   
 Atom       C41          C42          C43          C44          C45     
 Charge   -0.10290     -0.15306     -0.26892     -0.28401     -0.14925
   
 Atom       C46          C47          C48          C49          C50     
 Charge   -0.28861     -0.02140     -0.23257     -0.12017     -0.15169
   
 Atom       C51          C52          C53          C54          C55     
 Charge   -0.09621     -0.12730     -0.11353     -0.17481     -0.23319
   
 Atom       C56          C57          C58          C59          C60     
 Charge   -0.07659     -0.17215     -0.11299     -0.16834     -0.08473
   
 Atom       C61          C62          C63          C64          C65     
 Charge   -0.08639     -0.18789     -0.07860     -0.13747     -0.20330
   
 Atom       C66          C67          C68          C69          C70     
 Charge    0.23210     -0.11072     -0.04323     -0.11769     -0.06684
   
 Atom       N71          S72          O73          O74          C75     
 Charge   -0.30069      0.61313     -0.44131     -0.36774      0.61682
   
 Atom       C76          C77          C78          C79          N80     
 Charge   -0.48521      0.20990     -0.42867      0.39889     -0.63342
   
 Atom       N81          C82          C83          C84          C85     
 Charge    0.05999     -0.13571     -0.13270     -0.29030      0.04488
   
 Atom       H86          H87          H88          H89          H90     
 Charge    0.07681      0.14101      0.13808      0.17689      0.12635
   
 Atom       H91          H92          H93          H94          H95     
 Charge    0.12060      0.20623      0.16176      0.14071      0.11963
   
 Atom       H96          H97          H98          H99          H100    
 Charge    0.09087      0.09969      0.12056      0.14045      0.13556
   
 Atom       H101         H102         H103         H104         H105    
 Charge    0.11447      0.07631      0.08878      0.08681      0.11626
   
 Atom       H106         H107         H108         H109         H110    
 Charge    0.18825      0.07645      0.14148      0.09324      0.12747
   
 Atom       H111         H112         H113         H114         H115    
 Charge    0.12465      0.12762      0.12087      0.12336      0.10904
   
 Atom       H116         H117         H118         H119         H120    
 Charge    0.12872      0.13753      0.11847      0.13284      0.09337
   
 Atom       H121         H122         H123         H124         H125    
 Charge    0.12107      0.12218      0.12099      0.13269      0.11020
   
 Atom       H126         H127         H128         H129         H130    
 Charge    0.14162      0.14666      0.02362      0.07582      0.13446
   
 Atom       H131         H132         H133         H134         H135    
 Charge    0.14163      0.25800      0.09737      0.18580      0.05044
   
 Atom       H136         H137         H138         H139         H140    
 Charge    0.25349      0.17451      0.15551      0.19142      0.15772
   
 Atom       S141         O142         C143         O144         F145    
 Charge    0.70856     -0.48640      0.38768     -0.47384     -0.14438
   
 Atom       F146         F147         H148    
 Charge   -0.12884     -0.08262      0.24272
  
  sum of atomic charges:     0.000000
   
 RMS Error   9.05E-04 hartrees
 
  Peak memory usage:    588 Mb
  
  end of program ch
   
 Time(ch)  user:       20.0  user+sys:       21.0  wallclock:       49.3
  
  start of program post
  
  Writing input files for PBF
  Peak memory usage:    536 Mb
  
  end of program post
   
 Time(post)  user:        0.0  user+sys:        0.0  wallclock:        0.6

  start of program pbf

Pbf Version 4.00

Molecular surface area:      846.45422   [A2]
Reaction field energy:       -16.73812   [kT]
  Peak memory usage: 558 Mb

  end of program pbf

 Time(pbf)  user:        9.2  user+sys:        9.2  wallclock:       21.1
  
  start of program solv
  
   number of surface charges from PBF   13320
   sum of surface charges     -0.00031
   
  nuclear repulsion energy.......   20881.115575401 hartrees
  Peak memory usage:    701 Mb
  
  end of program solv
   
 Time(solv)  user:       38.0  user+sys:       38.0  wallclock:       93.7
  
  start of program scf
  
  
       i  u  d  i  g                   
       t  p  i  c  r                                 RMS    maximum
       e  d  i  u  i                       energy  density   DIIS  
       r  t  s  t  d       total energy    change  change    error 
  
etot    1  N  N  1  U   -5577.24337463464           7.4E-06  1.2E-04
etot    2  N  N  1  U   -5577.24335189673 -2.3E-05  0.0E+00  0.0E+00
  
  
 Energy components, in hartrees:
   (A)  Total zero-electron terms....   20884.36457087195
   (B)    Nuclear-nuclear............   20881.11557540114
   (C)    Nuclear-solvent............       3.24899547081
   (E)  Total one-electron terms.....  -49301.35890089569
   (F)    Electron-nuclear...........  -54833.24046925661
   (G)    Electron-solvent...........      -3.28455618351
   (H)    Kinetic....................    5535.16612454442
   (I)  Total two-electron terms.....   22839.75097812702
   (J)    Coulomb....................   23492.99126601224
   (K)    Exchange+Correlation.......    -653.24028788522
   (L)  Electronic energy............  -26461.60792276868  (E+I)
   (N)  Total quantum mech. energy...   -5577.24335189673  (A+L)
   (O)  Gas phase energy.............   -5577.20903722909
   (P)  Solution phase energy........   -5577.22557154038  (Q+R+S)
   (Q)    Total solute energy........   -5577.20779118403  (N-C-G)
   (R)    Total solvent energy.......      -0.01778035635  (C/2+G/2)
   (S)    Solute cavity energy.......       0.00000000000
   (U)  Reorganization energy........       0.00124604506  (Q-O)
   (V)  Solvation energy.............      -0.01653431129  (P-O)
  
 SCFE:  Solution phase energy: DFT(b3lyp)      -5577.22557154038 hartrees
        SCF iterations:   2
  
 
 HOMO energy:    -0.21557
 LUMO energy:    -0.09806
 
  Orbital energies (hartrees): 
   -69.64418   -60.07151   -59.37294   -51.21150   -34.21557   -27.01849
   -25.19897   -24.65544   -21.42930   -21.02815   -20.62663   -19.70902
   -18.82895   -17.64720   -17.44918   -17.00878   -16.93131   -16.88369
   -16.44715   -16.18951   -15.45568   -14.89455   -14.30937   -13.96762
   -13.29690   -12.67526   -12.33105   -12.09092   -11.88337   -11.76170
   -11.73745   -11.66854   -11.50459   -11.49123   -11.47884   -11.16551
   -11.15250   -11.07501   -10.88148   -10.87187   -10.86830   -10.72847
   -10.60636   -10.55266   -10.52372   -10.50975   -10.40574   -10.40280
   -10.35544   -10.33016   -10.29707   -10.29643   -10.29475   -10.28166
   -10.26099   -10.25670   -10.24653   -10.22940   -10.22509   -10.22257
   -10.21959   -10.21521   -10.21520   -10.19459   -10.18089   -10.17378
   -10.15003   -10.13283   -10.12979   -10.06149   -10.05342   -10.03181
    -9.99913    -9.98866    -9.95658    -9.94871    -9.94659    -9.92545
    -9.90797    -9.89942    -9.88388    -9.79548    -9.77262    -9.71337
    -9.63341    -9.63208    -9.53838    -9.51373    -9.49022    -9.47596
    -9.45565    -9.45013    -9.41384    -9.40917    -9.34497    -9.29042
    -9.23651    -9.21267    -9.06218    -9.03474    -8.87454    -7.81662
    -7.76675    -7.60419    -7.54456    -7.18359    -7.15077    -7.07327
    -6.94612    -6.64855    -6.64352    -6.04498    -1.25517    -1.06776
    -0.99419    -0.99242    -0.97061    -0.94689    -0.90476    -0.89342
    -0.87718    -0.87213    -0.85388    -0.82678    -0.82523    -0.81719
    -0.81503    -0.80251    -0.79151    -0.78451    -0.77609    -0.77214
    -0.76698    -0.76475    -0.76415    -0.75859    -0.75601    -0.75505
    -0.75146    -0.75058    -0.74828    -0.74411    -0.73715    -0.73020
    -0.73016    -0.72830    -0.72491    -0.71819    -0.71771    -0.71126
    -0.70229    -0.69595    -0.69307    -0.69235    -0.68148    -0.67364
    -0.66939    -0.64802    -0.63926    -0.63586    -0.63253    -0.61912
    -0.61475    -0.61403    -0.61194    -0.60840    -0.60616    -0.60523
    -0.60522    -0.59989    -0.59836    -0.59164    -0.57703    -0.57368
    -0.57236    -0.57202    -0.57129    -0.57090    -0.57058    -0.56930
    -0.56828    -0.56809    -0.56768    -0.56453    -0.56030    -0.55292
    -0.55262    -0.55256    -0.55147    -0.55049    -0.54953    -0.54745
    -0.54324    -0.53823    -0.53696    -0.53527    -0.53186    -0.52683
    -0.52497    -0.52256    -0.52087    -0.51663    -0.51421    -0.51304
    -0.51104    -0.50897    -0.50788    -0.50668    -0.50382    -0.50379
    -0.50362    -0.50198    -0.50116    -0.49901    -0.49848    -0.49768
    -0.49396    -0.49250    -0.49218    -0.48949    -0.48936    -0.48874
    -0.48754    -0.48632    -0.48613    -0.48408    -0.48059    -0.48005
    -0.47966    -0.47896    -0.47376    -0.47334    -0.47248    -0.46973
    -0.46888    -0.46681    -0.46588    -0.46409    -0.46280    -0.46053
    -0.45946    -0.45727    -0.45713    -0.45637    -0.45446    -0.44896
    -0.44799    -0.44605    -0.44547    -0.44188    -0.44178    -0.44116
    -0.44104    -0.43963    -0.43940    -0.43897    -0.43808    -0.43637
    -0.43582    -0.43412    -0.43329    -0.43103    -0.43020    -0.42700
    -0.42685    -0.42643    -0.42561    -0.42537    -0.42076    -0.42019
    -0.41930    -0.41832    -0.41626    -0.41575    -0.41535    -0.41437
    -0.41345    -0.41045    -0.40917    -0.40361    -0.40295    -0.40251
    -0.40209    -0.40208    -0.40180    -0.40127    -0.40019    -0.39992
    -0.39797    -0.39671    -0.39500    -0.39442    -0.39330    -0.39283
    -0.39255    -0.39213    -0.39070    -0.39038    -0.38827    -0.38561
    -0.38485    -0.38332    -0.38306    -0.37902    -0.37805    -0.37591
    -0.37313    -0.37277    -0.37073    -0.36968    -0.36805    -0.36741
    -0.36636    -0.36617    -0.36226    -0.36133    -0.35943    -0.35632
    -0.35290    -0.35185    -0.34559    -0.31155    -0.30869    -0.29248
    -0.28715    -0.28484    -0.28168    -0.27066    -0.27034    -0.26961
    -0.26570    -0.26130    -0.25992    -0.25175    -0.25022    -0.24830
    -0.24741    -0.24739    -0.24526    -0.21557    -0.09806    -0.05163
    -0.04458    -0.03240    -0.02799    -0.01923    -0.01643    -0.01379
    -0.01151    -0.00666
 
  Peak memory usage:    859 Mb
  
  end of program scf
   
 Time(scf)  user:      809.0  user+sys:      819.0  wallclock:     1632.3
  
  start of program sole
  
    SCRF                   solvation energy
  iteration          Hartrees            kcal/mol
     0               0.0000000            0.0000
     1              -0.0155615           -9.7650
     2              -0.0165343          -10.3754
  
  solvation energy not yet converged... 
  
  Peak memory usage:    635 Mb
  
  end of program sole
   
 Time(sole)  user:        0.0  user+sys:        0.0  wallclock:        0.4
  
  start of program ch
  
  gridpoints used for charge fit        16821
    out of a possible maximum of        16821
  
   Electrostatic potential fitting constrained to reproduce
     total charge:                yes
     dipole moment:               no 
     traceless quadrupole moment: no 
     traceless octapole moment:   no 
  
  Atomic charges from electrostatic potential: 
   
 Atom       C1           C2           C3           C4           C5      
 Charge   -0.05539     -0.05475     -0.18233      0.22164      0.00853
   
 Atom       C6           C7           C8           C9           C10     
 Charge   -0.22812     -0.37980     -0.09633     -0.01259     -0.16413
   
 Atom       C11          O12          Si13         C14          C15     
 Charge    0.24190     -0.18184     -0.35923      0.08596      0.38148
   
 Atom       C16          C17          C18          C19          C20     
 Charge    0.36154     -0.13291     -0.48732     -0.31794     -0.03393
   
 Atom       Si21         O22          C23          C24          P25     
 Charge   -0.05687     -0.41404     -0.18888     -0.06861      1.06886
   
 Atom       O26          N27          C28          C29          C30     
 Charge   -0.63559     -0.55232      0.03567      0.28346      0.17016
   
 Atom       C31          C32          C33          C34          C35     
 Charge   -0.01361      0.27453      0.22295      0.04771     -0.02776
   
 Atom       C36          C37          C38          C39          C40     
 Charge   -0.21304     -0.24061     -0.15488     -0.13297      0.03810
   
 Atom       C41          C42          C43          C44          C45     
 Charge   -0.10345     -0.15195     -0.26980     -0.28394     -0.14892
   
 Atom       C46          C47          C48          C49          C50     
 Charge   -0.28971     -0.02105     -0.23293     -0.12089     -0.15143
   
 Atom       C51          C52          C53          C54          C55     
 Charge   -0.09686     -0.12801     -0.11446     -0.17509     -0.23351
   
 Atom       C56          C57          C58          C59          C60     
 Charge   -0.07622     -0.17232     -0.11547     -0.16684     -0.08413
   
 Atom       C61          C62          C63          C64          C65     
 Charge   -0.08734     -0.18734     -0.07890     -0.13531     -0.20430
   
 Atom       C66          C67          C68          C69          C70     
 Charge    0.22959     -0.11274     -0.04374     -0.11556     -0.07098
   
 Atom       N71          S72          O73          O74          C75     
 Charge   -0.30166      0.60778     -0.44137     -0.36355      0.61445
   
 Atom       C76          C77          C78          C79          N80     
 Charge   -0.48497      0.21080     -0.42638      0.39902     -0.63688
   
 Atom       N81          C82          C83          C84          C85     
 Charge    0.06094     -0.13224     -0.12837     -0.29002      0.04430
   
 Atom       H86          H87          H88          H89          H90     
 Charge    0.07708      0.14175      0.13858      0.17736      0.12716
   
 Atom       H91          H92          H93          H94          H95     
 Charge    0.12086      0.20617      0.16225      0.14120      0.12017
   
 Atom       H96          H97          H98          H99          H100    
 Charge    0.09110      0.09939      0.12053      0.14043      0.13462
   
 Atom       H101         H102         H103         H104         H105    
 Charge    0.11467      0.07617      0.08850      0.08617      0.11616
   
 Atom       H106         H107         H108         H109         H110    
 Charge    0.18781      0.07629      0.14166      0.09404      0.12843
   
 Atom       H111         H112         H113         H114         H115    
 Charge    0.12535      0.12832      0.12165      0.12334      0.11015
   
 Atom       H116         H117         H118         H119         H120    
 Charge    0.12943      0.13820      0.11915      0.13343      0.09527
   
 Atom       H121         H122         H123         H124         H125    
 Charge    0.12185      0.12264      0.12128      0.13339      0.11122
   
 Atom       H126         H127         H128         H129         H130    
 Charge    0.14236      0.14802      0.02296      0.07587      0.13470
   
 Atom       H131         H132         H133         H134         H135    
 Charge    0.14197      0.25876      0.09796      0.18714      0.05156
   
 Atom       H136         H137         H138         H139         H140    
 Charge    0.25115      0.17457      0.15569      0.19207      0.15736
   
 Atom       S141         O142         C143         O144         F145    
 Charge    0.70713     -0.48651      0.38622     -0.47361     -0.14400
   
 Atom       F146         F147         H148    
 Charge   -0.12848     -0.08140      0.24036
  
  sum of atomic charges:     0.000000
   
 RMS Error   9.05E-04 hartrees
 
  Peak memory usage:    588 Mb
  
  end of program ch
   
 Time(ch)  user:       19.0  user+sys:       20.0  wallclock:       41.0
  
  start of program post
  
  Writing input files for PBF
  Peak memory usage:    536 Mb
  
  end of program post
   
 Time(post)  user:        0.0  user+sys:        0.0  wallclock:        0.8

  start of program pbf

Pbf Version 4.00

Molecular surface area:      846.45422   [A2]
Reaction field energy:       -17.08003   [kT]
  Peak memory usage: 558 Mb

  end of program pbf

 Time(pbf)  user:        8.6  user+sys:        8.7  wallclock:       18.8
  
  start of program solv
  
   number of surface charges from PBF   13320
   sum of surface charges     -0.00032
   
  nuclear repulsion energy.......   20881.115575401 hartrees
  Peak memory usage:    701 Mb
  
  end of program solv
   
 Time(solv)  user:       38.0  user+sys:       38.0  wallclock:       88.3
  
  start of program scf
  
  
       i  u  d  i  g                   
       t  p  i  c  r                                 RMS    maximum
       e  d  i  u  i                       energy  density   DIIS  
       r  t  s  t  d       total energy    change  change    error 
  
etot    1  N  N  1  U   -5577.24370261934           1.3E-05  2.3E-04
etot    2  N  Y  1  U   -5577.24353993369 -1.6E-04  9.0E-06  6.1E-04
etot    3  N  Y  1  U   -5577.24373265009  1.9E-04  4.2E-07  1.6E-05
etot    4  N  N  1  U   -5577.24373283082  1.8E-07  0.0E+00  0.0E+00
  
  
 Energy components, in hartrees:
   (A)  Total zero-electron terms....   20884.43420719359
   (B)    Nuclear-nuclear............   20881.11557540114
   (C)    Nuclear-solvent............       3.31863179244
   (E)  Total one-electron terms.....  -49301.15755381842
   (F)    Electron-nuclear...........  -54832.95585458487
   (G)    Electron-solvent...........      -3.35445465537
   (H)    Kinetic....................    5535.15275542182
   (I)  Total two-electron terms.....   22839.47961379401
   (J)    Coulomb....................   23492.71848884032
   (K)    Exchange+Correlation.......    -653.23887504631
   (L)  Electronic energy............  -26461.67794002440  (E+I)
   (N)  Total quantum mech. energy...   -5577.24373283082  (A+L)
   (O)  Gas phase energy.............   -5577.20903722909
   (P)  Solution phase energy........   -5577.22582139935  (Q+R+S)
   (Q)    Total solute energy........   -5577.20790996789  (N-C-G)
   (R)    Total solvent energy.......      -0.01791143147  (C/2+G/2)
   (S)    Solute cavity energy.......       0.00000000000
   (U)  Reorganization energy........       0.00112726120  (Q-O)
   (V)  Solvation energy.............      -0.01678417027  (P-O)
  
 SCFE:  Solution phase energy: DFT(b3lyp)      -5577.22582139935 hartrees
        SCF iterations:   4
  
 
 HOMO energy:    -0.20051
 LUMO energy:    -0.09889
 
  Orbital energies (hartrees): 
   -89.12631   -89.10415   -77.24277   -66.11114   -66.10979   -24.74033
   -24.73982   -24.73893   -19.19759   -19.19394   -19.16395   -19.15768
   -19.13139   -19.13016   -19.10948   -14.39594   -14.38847   -14.35974
   -14.31987   -10.44176   -10.29578   -10.26433   -10.25669   -10.25409
   -10.24621   -10.24260   -10.23061   -10.22335   -10.22265   -10.21719
   -10.21572   -10.21207   -10.20814   -10.20784   -10.20568   -10.20556
   -10.20508   -10.20267   -10.20216   -10.20183   -10.20018   -10.19802
   -10.19755   -10.19301   -10.19272   -10.18934   -10.18922   -10.18875
   -10.18832   -10.18777   -10.18750   -10.18732   -10.18613   -10.18589
   -10.18563   -10.18556   -10.18553   -10.18516   -10.18514   -10.18506
   -10.18474   -10.18461   -10.18438   -10.18424   -10.18372   -10.18350
   -10.18332   -10.18329   -10.18229   -10.18197   -10.18170   -10.18165
   -10.18164   -10.18121   -10.18025   -10.18009   -10.17959   -10.17860
   -10.17737   -10.17698   -10.17655   -10.17610   -10.17554   -10.17493
   -10.17391   -10.17268   -10.16908   -10.16776   -10.16747   -10.16630
   -10.16385   -10.16174    -8.15229    -8.12889    -6.68692    -6.11770
    -6.11634    -6.11474    -6.09337    -6.09290    -6.09274    -5.25787
    -5.25603    -4.85154    -4.85062    -4.84858    -3.61664    -3.61650
    -3.61641    -3.61525    -3.61471    -3.61417    -1.31794    -1.23145
    -1.22913    -1.12960    -1.10401    -1.09368    -1.06240    -1.02140
    -0.99606    -0.98502    -0.97137    -0.97074    -0.96209    -0.88264
    -0.87273    -0.87227    -0.85871    -0.84061    -0.83827    -0.83696
    -0.83492    -0.83243    -0.82825    -0.82126    -0.81824    -0.80613
    -0.79923    -0.79492    -0.78737    -0.78376    -0.76202    -0.75348
    -0.74756    -0.74506    -0.74365    -0.74068    -0.73949    -0.73742
    -0.73737    -0.73584    -0.73210    -0.73184    -0.73144    -0.72944
    -0.72919    -0.72826    -0.72782    -0.72632    -0.72337    -0.71358
    -0.70496    -0.67727    -0.67059    -0.65016    -0.63903    -0.63284
    -0.62125    -0.61767    -0.61521    -0.61230    -0.60997    -0.60534
    -0.60160    -0.59718    -0.59551    -0.59396    -0.59315    -0.59202
    -0.59056    -0.58910    -0.58842    -0.58656    -0.58501    -0.58300
    -0.58143    -0.57965    -0.57846    -0.57776    -0.57270    -0.57172
    -0.56750    -0.56394    -0.55441    -0.54685    -0.54524    -0.52912
    -0.52761    -0.52312    -0.51976    -0.50765    -0.50573    -0.50463
    -0.50321    -0.50148    -0.49903    -0.49850    -0.49767    -0.49671
    -0.49257    -0.48445    -0.47882    -0.47631    -0.47122    -0.47003
    -0.46845    -0.46567    -0.46320    -0.46260    -0.45915    -0.45844
    -0.45529    -0.45310    -0.45085    -0.44909    -0.44717    -0.44620
    -0.44443    -0.44403    -0.44213    -0.44117    -0.43933    -0.43755
    -0.43724    -0.43584    -0.43423    -0.43260    -0.43204    -0.43156
    -0.43048    -0.42882    -0.42792    -0.42666    -0.42650    -0.42529
    -0.42491    -0.42213    -0.42129    -0.42004    -0.41963    -0.41596
    -0.41510    -0.41399    -0.41369    -0.41284    -0.41105    -0.41048
    -0.40965    -0.40765    -0.40509    -0.40102    -0.39307    -0.39205
    -0.38920    -0.38862    -0.38540    -0.38470    -0.38240    -0.38062
    -0.37870    -0.37206    -0.37118    -0.36895    -0.36667    -0.36312
    -0.35946    -0.35845    -0.35724    -0.35469    -0.35466    -0.35262
    -0.35179    -0.34888    -0.34685    -0.34376    -0.34286    -0.33971
    -0.33794    -0.33466    -0.33364    -0.33239    -0.33192    -0.33168
    -0.33025    -0.32945    -0.32635    -0.32569    -0.32377    -0.32235
    -0.31925    -0.31778    -0.30987    -0.30693    -0.30590    -0.30343
    -0.30055    -0.29694    -0.29363    -0.29072    -0.28811    -0.28659
    -0.28597    -0.28513    -0.28377    -0.28211    -0.28088    -0.27739
    -0.27574    -0.26914    -0.26881    -0.26245    -0.25571    -0.24861
    -0.24815    -0.24784    -0.24646    -0.24641    -0.24337    -0.24276
    -0.24142    -0.23805    -0.23506    -0.23484    -0.23369    -0.23211
    -0.22974    -0.22728    -0.22059    -0.20051    -0.09889    -0.05252
    -0.04497    -0.03298    -0.02828    -0.01957    -0.01674    -0.01411
    -0.01185    -0.00704
 
  Peak memory usage:    859 Mb
  
  end of program scf
   
 Time(scf)  user:     2248.0  user+sys:     2272.0  wallclock:     3506.6
  
  start of program sole
  
    SCRF                   solvation energy
  iteration          Hartrees            kcal/mol
     0               0.0000000            0.0000
     1              -0.0155615           -9.7650
     2              -0.0165343          -10.3754
     3              -0.0167842          -10.5322
  
  solvation energy not yet converged... 
  
  Peak memory usage:    635 Mb
  
  end of program sole
   
 Time(sole)  user:        0.0  user+sys:        0.0  wallclock:        0.2
  
  start of program ch
  
  gridpoints used for charge fit        16821
    out of a possible maximum of        16821
  
   Electrostatic potential fitting constrained to reproduce
     total charge:                yes
     dipole moment:               no 
     traceless quadrupole moment: no 
     traceless octapole moment:   no 
  
  Atomic charges from electrostatic potential: 
   
 Atom       C1           C2           C3           C4           C5      
 Charge   -0.05504     -0.05464     -0.18259      0.22161      0.00834
   
 Atom       C6           C7           C8           C9           C10     
 Charge   -0.22805     -0.37989     -0.09665     -0.01185     -0.16352
   
 Atom       C11          O12          Si13         C14          C15     
 Charge    0.24198     -0.18252     -0.35902      0.08530      0.38190
   
 Atom       C16          C17          C18          C19          C20     
 Charge    0.36150     -0.13270     -0.48764     -0.31776     -0.03318
   
 Atom       Si21         O22          C23          C24          P25     
 Charge   -0.05701     -0.41424     -0.18919     -0.06904      1.06961
   
 Atom       O26          N27          C28          C29          C30     
 Charge   -0.63626     -0.55160      0.03602      0.28378      0.17046
   
 Atom       C31          C32          C33          C34          C35     
 Charge   -0.01286      0.27528      0.22420      0.04847     -0.02744
   
 Atom       C36          C37          C38          C39          C40     
 Charge   -0.21276     -0.24051     -0.15530     -0.13243      0.03826
   
 Atom       C41          C42          C43          C44          C45     
 Charge   -0.10307     -0.15172     -0.26936     -0.28437     -0.14875
   
 Atom       C46          C47          C48          C49          C50     
 Charge   -0.28952     -0.02149     -0.23339     -0.12083     -0.15172
   
 Atom       C51          C52          C53          C54          C55     
 Charge   -0.09689     -0.12794     -0.11437     -0.17534     -0.23370
   
 Atom       C56          C57          C58          C59          C60     
 Charge   -0.07658     -0.17266     -0.11465     -0.16800     -0.08471
   
 Atom       C61          C62          C63          C64          C65     
 Charge   -0.08710     -0.18786     -0.07919     -0.13693     -0.20398
   
 Atom       C66          C67          C68          C69          C70     
 Charge    0.23142     -0.11150     -0.04405     -0.11692     -0.06846
   
 Atom       N71          S72          O73          O74          C75     
 Charge   -0.29853      0.61051     -0.44265     -0.36594      0.61654
   
 Atom       C76          C77          C78          C79          N80     
 Charge   -0.48552      0.21021     -0.42810      0.39932     -0.63634
   
 Atom       N81          C82          C83          C84          C85     
 Charge    0.06205     -0.13569     -0.13053     -0.29093      0.04370
   
 Atom       H86          H87          H88          H89          H90     
 Charge    0.07680      0.14170      0.13846      0.17716      0.12711
   
 Atom       H91          H92          H93          H94          H95     
 Charge    0.12073      0.20617      0.16217      0.14118      0.12016
   
 Atom       H96          H97          H98          H99          H100    
 Charge    0.09085      0.09933      0.12032      0.14034      0.13495
   
 Atom       H101         H102         H103         H104         H105    
 Charge    0.11448      0.07615      0.08835      0.08630      0.11593
   
 Atom       H106         H107         H108         H109         H110    
 Charge    0.18812      0.07609      0.14152      0.09396      0.12831
   
 Atom       H111         H112         H113         H114         H115    
 Charge    0.12523      0.12825      0.12153      0.12325      0.10996
   
 Atom       H116         H117         H118         H119         H120    
 Charge    0.12932      0.13812      0.11910      0.13337      0.09454
   
 Atom       H121         H122         H123         H124         H125    
 Charge    0.12191      0.12265      0.12116      0.13333      0.11110
   
 Atom       H126         H127         H128         H129         H130    
 Charge    0.14253      0.14763      0.02298      0.07579      0.13488
   
 Atom       H131         H132         H133         H134         H135    
 Charge    0.14147      0.25853      0.09794      0.18725      0.05126
   
 Atom       H136         H137         H138         H139         H140    
 Charge    0.25189      0.17503      0.15624      0.19236      0.15811
   
 Atom       S141         O142         C143         O144         F145    
 Charge    0.70805     -0.48710      0.38639     -0.47420     -0.14394
   
 Atom       F146         F147         H148    
 Charge   -0.12880     -0.08163      0.24041
  
  sum of atomic charges:     0.000000
   
 RMS Error   9.05E-04 hartrees
 
  Peak memory usage:    588 Mb
  
  end of program ch
   
 Time(ch)  user:       18.0  user+sys:       18.0  wallclock:       19.9
  
  start of program post
  
  Writing input files for PBF
  Peak memory usage:    536 Mb
  
  end of program post
   
 Time(post)  user:        0.0  user+sys:        0.0  wallclock:        0.2

  start of program pbf

Pbf Version 4.00

Molecular surface area:      846.45422   [A2]
Reaction field energy:       -16.99183   [kT]
  Peak memory usage: 558 Mb

  end of program pbf

 Time(pbf)  user:        8.4  user+sys:        8.5  wallclock:        8.6
  
  start of program solv
  
   number of surface charges from PBF   13320
   sum of surface charges     -0.00032
   
  nuclear repulsion energy.......   20881.115575401 hartrees
  Peak memory usage:    701 Mb
  
  end of program solv
   
 Time(solv)  user:       36.0  user+sys:       36.0  wallclock:       37.7
  
  start of program scf
  
  
       i  u  d  i  g                   
       t  p  i  c  r                                 RMS    maximum
       e  d  i  u  i                       energy  density   DIIS  
       r  t  s  t  d       total energy    change  change    error 
  
etot    1  N  N  1  U   -5577.24364663879           7.6E-07  1.1E-05
etot    2  N  N  1  U   -5577.24364653677 -1.0E-07  0.0E+00  0.0E+00
  
  
 Energy components, in hartrees:
   (A)  Total zero-electron terms....   20884.41133599738
   (B)    Nuclear-nuclear............   20881.11557540114
   (C)    Nuclear-solvent............       3.29576059624
   (E)  Total one-electron terms.....  -49301.10528253537
   (F)    Electron-nuclear...........  -54832.92603571893
   (G)    Electron-solvent...........      -3.33147657772
   (H)    Kinetic....................    5535.15222976128
   (I)  Total two-electron terms.....   22839.45030000122
   (J)    Coulomb....................   23492.68911692479
   (K)    Exchange+Correlation.......    -653.23881692357
   (L)  Electronic energy............  -26461.65498253415  (E+I)
   (N)  Total quantum mech. energy...   -5577.24364653677  (A+L)
   (O)  Gas phase energy.............   -5577.20903722909
   (P)  Solution phase energy........   -5577.22578854603  (Q+R+S)
   (Q)    Total solute energy........   -5577.20793055529  (N-C-G)
   (R)    Total solvent energy.......      -0.01785799074  (C/2+G/2)
   (S)    Solute cavity energy.......       0.00000000000
   (U)  Reorganization energy........       0.00110667380  (Q-O)
   (V)  Solvation energy.............      -0.01675131694  (P-O)
  
 SCFE:  Solution phase energy: DFT(b3lyp)      -5577.22578854603 hartrees
        SCF iterations:   2
  
 
 HOMO energy:    -0.20053
 LUMO energy:    -0.09894
 
  Orbital energies (hartrees): 
   -89.12648   -89.10419   -77.24272   -66.11125   -66.10976   -24.74030
   -24.73982   -24.73887   -19.19747   -19.19397   -19.16436   -19.15724
   -19.13150   -19.12988   -19.10960   -14.39598   -14.38834   -14.35989
   -14.31979   -10.44176   -10.29592   -10.26455   -10.25672   -10.25415
   -10.24608   -10.24268   -10.23077   -10.22347   -10.22253   -10.21706
   -10.21565   -10.21225   -10.20829   -10.20779   -10.20569   -10.20551
   -10.20516   -10.20262   -10.20224   -10.20170   -10.20015   -10.19807
   -10.19761   -10.19307   -10.19276   -10.18933   -10.18919   -10.18893
   -10.18822   -10.18764   -10.18760   -10.18725   -10.18604   -10.18582
   -10.18561   -10.18552   -10.18544   -10.18518   -10.18510   -10.18499
   -10.18473   -10.18456   -10.18444   -10.18419   -10.18381   -10.18338
   -10.18332   -10.18329   -10.18235   -10.18203   -10.18168   -10.18167
   -10.18165   -10.18115   -10.18037   -10.18016   -10.17964   -10.17872
   -10.17734   -10.17693   -10.17658   -10.17604   -10.17557   -10.17483
   -10.17383   -10.17285   -10.16926   -10.16785   -10.16755   -10.16641
   -10.16376   -10.16167    -8.15245    -8.12891    -6.68688    -6.11785
    -6.11649    -6.11490    -6.09340    -6.09293    -6.09277    -5.25797
    -5.25601    -4.85150    -4.85057    -4.84854    -3.61675    -3.61661
    -3.61651    -3.61523    -3.61468    -3.61414    -1.31792    -1.23144
    -1.22910    -1.12966    -1.10399    -1.09365    -1.06240    -1.02143
    -0.99604    -0.98498    -0.97146    -0.97076    -0.96217    -0.88262
    -0.87275    -0.87230    -0.85873    -0.84063    -0.83827    -0.83697
    -0.83493    -0.83243    -0.82821    -0.82122    -0.81822    -0.80614
    -0.79928    -0.79493    -0.78742    -0.78380    -0.76205    -0.75348
    -0.74758    -0.74506    -0.74367    -0.74067    -0.73951    -0.73742
    -0.73736    -0.73586    -0.73209    -0.73185    -0.73146    -0.72943
    -0.72920    -0.72825    -0.72781    -0.72632    -0.72333    -0.71362
    -0.70498    -0.67731    -0.67058    -0.65017    -0.63903    -0.63288
    -0.62127    -0.61766    -0.61524    -0.61231    -0.61001    -0.60535
    -0.60160    -0.59718    -0.59551    -0.59394    -0.59314    -0.59203
    -0.59055    -0.58911    -0.58843    -0.58658    -0.58500    -0.58300
    -0.58141    -0.57967    -0.57848    -0.57776    -0.57267    -0.57176
    -0.56750    -0.56397    -0.55442    -0.54686    -0.54527    -0.52914
    -0.52763    -0.52312    -0.51976    -0.50768    -0.50573    -0.50463
    -0.50321    -0.50148    -0.49905    -0.49849    -0.49766    -0.49670
    -0.49256    -0.48446    -0.47884    -0.47631    -0.47121    -0.47001
    -0.46844    -0.46568    -0.46320    -0.46260    -0.45915    -0.45844
    -0.45532    -0.45310    -0.45088    -0.44909    -0.44716    -0.44621
    -0.44443    -0.44403    -0.44214    -0.44119    -0.43932    -0.43756
    -0.43724    -0.43585    -0.43423    -0.43261    -0.43203    -0.43157
    -0.43048    -0.42881    -0.42793    -0.42669    -0.42651    -0.42528
    -0.42490    -0.42212    -0.42128    -0.42002    -0.41967    -0.41598
    -0.41511    -0.41399    -0.41369    -0.41285    -0.41106    -0.41048
    -0.40965    -0.40766    -0.40508    -0.40101    -0.39308    -0.39203
    -0.38922    -0.38864    -0.38540    -0.38471    -0.38241    -0.38064
    -0.37869    -0.37207    -0.37119    -0.36896    -0.36670    -0.36312
    -0.35945    -0.35846    -0.35726    -0.35471    -0.35470    -0.35263
    -0.35181    -0.34888    -0.34684    -0.34375    -0.34285    -0.33970
    -0.33792    -0.33468    -0.33366    -0.33240    -0.33192    -0.33171
    -0.33027    -0.32943    -0.32630    -0.32568    -0.32375    -0.32234
    -0.31926    -0.31778    -0.30988    -0.30693    -0.30589    -0.30344
    -0.30050    -0.29699    -0.29364    -0.29072    -0.28815    -0.28663
    -0.28599    -0.28513    -0.28377    -0.28213    -0.28089    -0.27741
    -0.27575    -0.26917    -0.26881    -0.26247    -0.25568    -0.24862
    -0.24814    -0.24785    -0.24649    -0.24641    -0.24339    -0.24278
    -0.24143    -0.23805    -0.23507    -0.23485    -0.23366    -0.23213
    -0.22971    -0.22731    -0.22060    -0.20053    -0.09894    -0.05254
    -0.04499    -0.03298    -0.02828    -0.01960    -0.01676    -0.01413
    -0.01189    -0.00703
 
  Peak memory usage:    859 Mb
  
  end of program scf
   
 Time(scf)  user:      748.0  user+sys:      756.0  wallclock:      796.5
  
  start of program sole
  
    SCRF                   solvation energy
  iteration          Hartrees            kcal/mol
     0               0.0000000            0.0000
     1              -0.0155615           -9.7650
     2              -0.0165343          -10.3754
     3              -0.0167842          -10.5322
     4              -0.0167513          -10.5116
  
  stopping: solvation energy converged
  
  iterations:   4    sfinal:    -10.5116 kcal/mol
  
  Peak memory usage:    635 Mb
  
  end of program sole
   
 Time(sole)  user:        0.0  user+sys:        0.0  wallclock:        0.2
  
  start of program post
  
  Writing input files for PBF
  Peak memory usage:    536 Mb
  
  end of program post
   
 Time(post)  user:        0.0  user+sys:        0.0  wallclock:        0.2

 Total cpu seconds     user:   20754.000   user+sys:   20995.000
  
 Total elapsed time:    51976 seconds

Job B3LYP-SPE-Toru-SiPh3-NTf-Type-I-E-5-chkp-unrestrained-2 completed on tethys at Thu Nov 24 04:40:51 2016
