Job Toru-SiPh3-NTf-Type-II-E-Sulfonyl-1-chkp-scan-207-unrestrained-IRC-min-disp-2-SPE started on tethys at Mon Apr  3 13:16:29 2017
jobid: tethys-0-58e23d1b

  +--------------------------------------------------------------------+
  |  Jaguar version 9.5, release  11                                   |
  |                                                                    |
  |  Copyright Schrodinger, Inc.                                       |
  |  All Rights Reserved.                                              |
  |                                                                    |
  |  The following have contributed to Jaguar (listed alphabetically): |
  |  Mike Beachy, Art Bochevarov, Dale Braden, Yixiang Cao,            |
  |  Chris Cortis, Rich Friesner, Bill Goddard, Hod Greeley,           |
  |  Tom Hughes, Leif Jacobson, Jean-Marc Langlois,                    |
  |  Daniel Mainz, Rob Murphy, Dean Philipp, Tom Pollard,              |
  |  Murco Ringnalda, Mark Watson, Haoyu Yu.                           |
  |                                                                    |
  |  Use of this program should be acknowledged in publications as:    |
  |                                                                    |
  |  Jaguar, version 9.5, Schrodinger, Inc., New York, NY, 2017.       |
  |                                                                    |
  |  A. D. Bochevarov, E. Harder, T. F. Hughes, J. R. Greenwood,       |
  |  D. A. Braden, D. M. Philipp, D. Rinaldo, M. D. Halls,             |
  |  J. Zhang, R. A. Friesner, "Jaguar: A High-Performance Quantum     |
  |  Chemistry Software Program with Strengths in Life and Materials   |
  |  Sciences", Int. J. Quantum Chem., 2013, 113(18), 2110-2142.       |
  +--------------------------------------------------------------------+
  
  start of program pre
  
  Job name: 
 Toru-SiPh3-NTf-Type-II-E-Sulfonyl-1-chkp-scan-207-unrestrained-IRC-min-disp-2-S
 PE
  Executables used: /usr/local/shared/schrodinger/current/jaguar-v9.5/bin/Linux-x86_64
  Temporary files : /scratch/ab2144/Toru-SiPh3-NTf-Type-II-E-Sulfonyl-1-chkp-scan-207-unrestrained-IRC-min-disp-2-SPE
  Maestro file (input):  Toru-SiPh3-NTf-Type-II-E-Sulfonyl-1-chkp-scan-207-unrestrained-IRC-min-disp-2-SPE.mae
  Maestro file (output): Toru-SiPh3-NTf-Type-II-E-Sulfonyl-1-chkp-scan-207-unrestrained-IRC-min-disp-2-SPE.01.mae
  
  basis set:             6-31g**                         
  net molecular charge:    0
  multiplicity:            1
  
  keygrid settings 
    wispc.....   7.500E-01
    ldens.....   0
    denspc....   7.500E-01
  
   grid     daf set  nls  grid set  Q type
  ------    -------  ---  --------  ------
  coarse       1      1       1        1
  medium       2      2       2        1
  fine         3      2       3        0
  ultrafine    4      2       4        1
  charge       0      1      -1        1
  gradient     5      2       4        1
  density      0      1       0        0
  DFT-fine     0      1     -13        0
  DFT-med.     0      1     -13        0
  DFT-grad     0      1     -13        0
  DFT-der2     0      1       0        0
  DFT-cphf     0      1       0        0
  LMP2-enrg    4      2       4        1
  LMP2-grad    5      2       2        1
  DFT-cphf2    0      1       0        0
  PBF-dens     0      1       0        0
  plotting     0      1       0        0
  Rel-grad     0      1     -17        0
  
  idftgrdm  100
  ndftgrdm   50    0    0
  idftgrdf  111
  ndftgrdf   85    0    0
  idftgrdg  111
  ndftgrdg   80    3    0
  idftgrdu  433
  ndftgrdu  105    0    0
  idftgrdd  433
  ndftgrdd  105    0    0
  idftgrdc  433
  ndftgrdc   26    0    0
  idftgrdp  433
  ndftgrdp   18    0    0
  
  number of basis functions....         1680
  
 Input geometry:
                                   angstroms
  atom               x                 y                 z
  C1           -5.5394000000      1.9283000000      1.2844000000 
  C2           -4.1847000000      2.5064000000      1.0504000000 
  C3           -6.6194000000      2.7174000000      1.3115000000 
  C4           -4.0797000000      3.8317000000      0.8029000000 
  C5           -2.9523000000      1.6524000000      1.0454000000 
  C6           -5.2816000000      4.6973000000      0.8424000000 
  C7           -2.7806000000      4.4148000000      0.4268000000 
  C8           -6.4834000000      4.1686000000      1.0919000000 
  C9           -1.7770000000      2.1865000000      0.6198000000 
  C10          -3.0451000000      0.2137000000      1.4155000000 
  C11          -1.7018000000      3.6355000000      0.2850000000 
  O12          -0.5947000000      1.4854000000      0.6769000000 
  Si13         -0.1107000000      4.3423000000     -0.3822000000 
  C14          -3.5348000000     -0.2187000000      2.5986000000 
  C15          -2.7063000000     -0.7790000000      0.3655000000 
  C16          -3.8933000000     -1.6530000000      2.7600000000 
  C17          -3.7687000000      0.6832000000      3.7521000000 
  C18          -3.7513000000     -2.5059000000      1.7336000000 
  C19          -4.4628000000     -2.0964000000      4.0475000000 
  C20          -3.1446000000     -2.0488000000      0.4633000000 
  Si21         -2.9699000000     -3.2450000000     -0.9590000000 
  O22          -1.8840000000     -0.3996000000     -0.6654000000 
  C23          -4.2870000000      0.2074000000      4.8905000000 
  C24          -4.6456000000     -1.2201000000      5.0420000000 
  P25          -0.4131000000      0.0854000000     -0.1438000000 
  O26           0.4650000000      0.2651000000     -1.3510000000 
  N27           0.0287000000     -1.0158000000      0.9594000000 
  C28          -0.2291000000      6.1722000000     -0.6934000000 
  C29           1.2014000000      3.9538000000      0.8779000000 
  C30           0.2521000000      3.5815000000     -2.0403000000 
  C31          -1.3137000000     -4.0985000000     -0.9044000000 
  C32          -4.3365000000     -4.5083000000     -0.8585000000 
  C33          -3.1665000000     -2.2542000000     -2.5296000000 
  C34           0.5711000000      7.0481000000     -0.0620000000 
  C35          -1.1921000000      6.6660000000     -1.7076000000 
  C36           2.2400000000      3.1545000000      0.5850000000 
  C37           1.0636000000      4.4945000000      2.2514000000 
  C38           1.3887000000      3.8882000000     -2.6869000000 
  C39          -0.7379000000      2.6885000000     -2.6931000000 
  C40          -0.5502000000     -4.0534000000      0.1993000000 
  C41          -0.8457000000     -4.8758000000     -2.0792000000 
  C42          -4.0868000000     -5.8202000000     -1.0138000000 
  C43          -5.7234000000     -4.0642000000     -0.5710000000 
  C44          -4.3282000000     -1.6323000000     -2.7957000000 
  C45          -2.0190000000     -2.0614000000     -3.4510000000 
  C46           0.4659000000      8.4936000000     -0.3523000000 
  C47          -0.4158000000      8.9344000000     -1.2572000000 
  C48          -1.2827000000      7.9753000000     -1.9707000000 
  C49           3.2596000000      2.8526000000      1.6119000000 
  C50           3.1410000000      3.3599000000      2.8442000000 
  C51           1.9868000000      4.2179000000      3.1807000000 
  C52           1.6768000000      3.2930000000     -4.0085000000 
  C53           0.7981000000      2.4580000000     -4.5746000000 
  C54          -0.4726000000      2.1498000000     -3.8894000000 
  C55           0.7632000000     -4.7318000000      0.2238000000 
  C56           1.1945000000     -5.4002000000     -0.8516000000 
  C57           0.3487000000     -5.4790000000     -2.0582000000 
  C58          -5.1868000000     -6.8038000000     -0.9294000000 
  C59          -6.4367000000     -6.3941000000     -0.6856000000 
  C60          -6.7166000000     -4.9579000000     -0.4916000000 
  C61          -4.4725000000     -0.8034000000     -4.0104000000 
  C62          -3.4392000000     -0.6520000000     -4.8457000000 
  C63          -2.1513000000     -1.3081000000     -4.5493000000 
  C64           5.5152000000      0.8038000000     -4.2906000000 
  C65           5.3454000000     -0.3777000000     -3.5674000000 
  C66           4.7702000000     -0.3548000000     -2.2921000000 
  C67           4.3686000000      0.8692000000     -1.7459000000 
  C68           4.5503000000      2.0505000000     -2.4633000000 
  C69           5.1198000000      2.0214000000     -3.7374000000 
  C70           4.5953000000     -1.6572000000     -1.5298000000 
  N71           4.7513000000     -1.4916000000     -0.0955000000 
  S72           5.2678000000     -2.8981000000      0.7098000000 
  O73           4.1548000000     -3.8614000000      0.8183000000 
  O74           6.5089000000     -3.3290000000      0.0616000000 
  C75           5.5748000000     -2.2081000000      2.3597000000 
  C76           4.5995000000     -2.3719000000      3.3397000000 
  C77           4.8612000000     -1.7859000000      4.5800000000 
  C78           6.0612000000     -1.1036000000      4.7653000000 
  C79           6.9622000000     -1.0203000000      3.6993000000 
  N80           6.7248000000     -1.5603000000      2.5003000000 
  N81           2.1164000000     -1.4976000000     -2.2050000000 
  C82           1.6868000000     -1.6684000000     -3.4208000000 
  C83           2.4102000000     -2.7245000000     -4.0834000000 
  C84           3.3180000000     -3.1834000000     -3.1886000000 
  C85           3.2222000000     -2.4035000000     -1.9237000000 
  H86          -5.6758000000      0.8637000000      1.4139000000 
  H87          -7.5996000000      2.2903000000      1.4803000000 
  H88          -5.1916000000      5.7619000000      0.6650000000 
  H89          -2.7315000000      5.4732000000      0.2131000000 
  H90          -7.3610000000      4.8016000000      1.1181000000 
  H91          -3.5061000000      1.7320000000      3.6962000000 
  H92          -4.0410000000     -3.5436000000      1.8452000000 
  H93          -4.7396000000     -3.1336000000      4.1943000000 
  H94          -4.4450000000      0.8787000000      5.7248000000 
  H95          -5.0646000000     -1.5592000000      5.9807000000 
  H96           1.3084000000      6.7190000000      0.6559000000 
  H97          -1.8273000000      5.9682000000     -2.2392000000 
  H98           2.3389000000      2.7086000000     -0.3925000000 
  H99           0.2154000000      5.1172000000      2.5075000000 
  H100          2.1111000000      4.5643000000     -2.2463000000 
  H101         -1.6797000000      2.4632000000     -2.2119000000 
  H102         -0.8851000000     -3.5349000000      1.0871000000 
  H103         -1.4675000000     -4.9543000000     -2.9622000000 
  H104         -3.0882000000     -6.1837000000     -1.2064000000 
  H105         -5.9386000000     -3.0191000000     -0.3943000000 
  H106         -5.1695000000     -1.7098000000     -2.1237000000 
  H107         -1.0587000000     -2.5000000000     -3.2319000000 
  H108          1.1063000000      9.1942000000      0.1678000000 
  H109         -0.4925000000      9.9926000000     -1.4712000000 
  H110         -1.9883000000      8.3337000000     -2.7090000000 
  H111          4.1001000000      2.2165000000      1.3670000000 
  H112          3.8840000000      3.1353000000      3.5985000000 
  H113          1.8858000000      4.6155000000      4.1822000000 
  H114          2.6019000000      3.5327000000     -4.5160000000 
  H115          1.0103000000      2.0173000000     -5.5401000000 
  H116         -1.1927000000      1.4953000000     -4.3615000000 
  H117          1.3758000000     -4.6884000000      1.1140000000 
  H118          2.1589000000     -5.8912000000     -0.8363000000 
  H119          0.6922000000     -6.0349000000     -2.9209000000 
  H120         -4.9778000000     -7.8569000000     -1.0663000000 
  H121         -7.2427000000     -7.1137000000     -0.6229000000 
  H122         -7.7252000000     -4.6313000000     -0.2733000000 
  H123         -5.4155000000     -0.3149000000     -4.2193000000 
  H124         -3.5412000000     -0.0410000000     -5.7332000000 
  H125         -1.3097000000     -1.1638000000     -5.2144000000 
  H126          5.9702000000      0.7725000000     -5.2762000000 
  H127          5.6797000000     -1.3209000000     -3.9927000000 
  H128          3.9261000000      0.9003000000     -0.7569000000 
  H129          4.2501000000      2.9962000000     -2.0237000000 
  H130          5.2605000000      2.9440000000     -4.2926000000 
  H131          5.3888000000     -2.3425000000     -1.8405000000 
  H132          3.6732000000     -2.8921000000      3.1280000000 
  H133          4.1299000000     -1.8575000000      5.3785000000 
  H134          6.2999000000     -0.6351000000      5.7147000000 
  H135          7.9075000000     -0.4940000000      3.8095000000 
  H136          1.6178000000     -0.7730000000     -1.5987000000 
  H137          0.8795000000     -1.0522000000     -3.7979000000 
  H138          2.2301000000     -3.0651000000     -5.0931000000 
  H139          4.0330000000     -3.9845000000     -3.3282000000 
  H140          2.9755000000     -3.0509000000     -1.0704000000 
  S141          1.3040000000     -1.0296000000      1.8750000000 
  O142          2.4832000000     -0.3345000000      1.2833000000 
  C143          0.8849000000     -0.0055000000      3.3877000000 
  O144          1.5264000000     -2.3634000000      2.4420000000 
  F145          0.7550000000      1.2901000000      3.1018000000 
  F146         -0.2615000000     -0.4447000000      3.9228000000 
  F147          1.8645000000     -0.1470000000      4.2948000000 
  H148          3.9453000000     -1.0822000000      0.4002000000 
   
  principal moments of inertia:
        amu*angstrom^2:    22872.23169    24384.28406    31333.52981
                g*cm^2: 3.79802295E-36 4.04910512E-36 5.20305439E-36
   
  rotational constants:
               cm^(-1):      0.00073703      0.00069133      0.00053801
                   GHz:      0.02209575      0.02072560      0.01612902
   
  Molecular weight:    1308.28 amu
   
  Stoichiometry: Si2C73PN4H56S2O7F3
[running at reduced cpu priority]
  Molecular Point Group: C1      
  Point Group used: C1
  
  nuclear repulsion energy.......   20736.476334673 hartrees
 
 Non-default options chosen:
   SCF calculation type: DFT(m06-2x)                 
   DFT=M06-2X
   Solvation energy will be computed using PBF
     -solute cavity energy will not be included
     -surface area terms will not be included
   Highest accuracy cutoffs used in SCF
   Solvent: other                                                           
   Internal dielectric constant:    1.000
   Continuum dielectric constant:   2.380
   Solvent probe molecule radius:   2.760
  
 Temporary integer options set:
     73=  2
  
  atom       vdw   vdw2    cov     mass  grid  daf  charge   basis
  C1        1.949  1.900  0.770   12.000    Y    Y      Y    6-31g**
  C2        1.949  1.900  0.770   12.000    Y    Y      Y    6-31g**
  C3        1.949  1.900  0.770   12.000    Y    Y      Y    6-31g**
  C4        1.949  1.900  0.770   12.000    Y    Y      Y    6-31g**
  C5        1.949  1.900  0.770   12.000    Y    Y      Y    6-31g**
  C6        1.949  1.900  0.770   12.000    Y    Y      Y    6-31g**
  C7        1.949  1.900  0.770   12.000    Y    Y      Y    6-31g**
  C8        1.949  1.900  0.770   12.000    Y    Y      Y    6-31g**
  C9        1.949  1.900  0.770   12.000    Y    Y      Y    6-31g**
  C10       1.949  1.900  0.770   12.000    Y    Y      Y    6-31g**
  C11       1.949  1.900  0.770   12.000    Y    Y      Y    6-31g**
  O12       1.702  1.600  0.730   15.995    Y    Y      Y    6-31g**
  Si13      2.217  2.147  1.110   27.977    Y    Y      Y    6-31g**
  C14       1.949  1.900  0.770   12.000    Y    Y      Y    6-31g**
  C15       1.949  1.900  0.770   12.000    Y    Y      Y    6-31g**
  C16       1.949  1.900  0.770   12.000    Y    Y      Y    6-31g**
  C17       1.949  1.900  0.770   12.000    Y    Y      Y    6-31g**
  C18       1.949  1.900  0.770   12.000    Y    Y      Y    6-31g**
  C19       1.949  1.900  0.770   12.000    Y    Y      Y    6-31g**
  C20       1.949  1.900  0.770   12.000    Y    Y      Y    6-31g**
  Si21      2.217  2.147  1.110   27.977    Y    Y      Y    6-31g**
  O22       1.702  1.600  0.730   15.995    Y    Y      Y    6-31g**
  C23       1.949  1.900  0.770   12.000    Y    Y      Y    6-31g**
  C24       1.949  1.900  0.770   12.000    Y    Y      Y    6-31g**
  P25       2.147  2.074  1.060   30.974    Y    Y      Y    6-31g**
  O26       1.702  1.600  0.730   15.995    Y    Y      Y    6-31g**
  N27       1.831  1.600  0.750   14.003    Y    Y      Y    6-31g**
  C28       1.949  1.900  0.770   12.000    Y    Y      Y    6-31g**
  C29       1.949  1.900  0.770   12.000    Y    Y      Y    6-31g**
  C30       1.949  1.900  0.770   12.000    Y    Y      Y    6-31g**
  C31       1.949  1.900  0.770   12.000    Y    Y      Y    6-31g**
  C32       1.949  1.900  0.770   12.000    Y    Y      Y    6-31g**
  C33       1.949  1.900  0.770   12.000    Y    Y      Y    6-31g**
  C34       1.949  1.900  0.770   12.000    Y    Y      Y    6-31g**
  C35       1.949  1.900  0.770   12.000    Y    Y      Y    6-31g**
  C36       1.949  1.900  0.770   12.000    Y    Y      Y    6-31g**
  C37       1.949  1.900  0.770   12.000    Y    Y      Y    6-31g**
  C38       1.949  1.900  0.770   12.000    Y    Y      Y    6-31g**
  C39       1.949  1.900  0.770   12.000    Y    Y      Y    6-31g**
  C40       1.949  1.900  0.770   12.000    Y    Y      Y    6-31g**
  C41       1.949  1.900  0.770   12.000    Y    Y      Y    6-31g**
  C42       1.949  1.900  0.770   12.000    Y    Y      Y    6-31g**
  C43       1.949  1.900  0.770   12.000    Y    Y      Y    6-31g**
  C44       1.949  1.900  0.770   12.000    Y    Y      Y    6-31g**
  C45       1.949  1.900  0.770   12.000    Y    Y      Y    6-31g**
  C46       1.949  1.900  0.770   12.000    Y    Y      Y    6-31g**
  C47       1.949  1.900  0.770   12.000    Y    Y      Y    6-31g**
  C48       1.949  1.900  0.770   12.000    Y    Y      Y    6-31g**
  C49       1.949  1.900  0.770   12.000    Y    Y      Y    6-31g**
  C50       1.949  1.900  0.770   12.000    Y    Y      Y    6-31g**
  C51       1.949  1.900  0.770   12.000    Y    Y      Y    6-31g**
  C52       1.949  1.900  0.770   12.000    Y    Y      Y    6-31g**
  C53       1.949  1.900  0.770   12.000    Y    Y      Y    6-31g**
  C54       1.949  1.900  0.770   12.000    Y    Y      Y    6-31g**
  C55       1.949  1.900  0.770   12.000    Y    Y      Y    6-31g**
  C56       1.949  1.900  0.770   12.000    Y    Y      Y    6-31g**
  C57       1.949  1.900  0.770   12.000    Y    Y      Y    6-31g**
  C58       1.949  1.900  0.770   12.000    Y    Y      Y    6-31g**
  C59       1.949  1.900  0.770   12.000    Y    Y      Y    6-31g**
  C60       1.949  1.900  0.770   12.000    Y    Y      Y    6-31g**
  C61       1.949  1.900  0.770   12.000    Y    Y      Y    6-31g**
  C62       1.949  1.900  0.770   12.000    Y    Y      Y    6-31g**
  C63       1.949  1.900  0.770   12.000    Y    Y      Y    6-31g**
  C64       1.949  1.900  0.770   12.000    Y    Y      Y    6-31g**
  C65       1.949  1.900  0.770   12.000    Y    Y      Y    6-31g**
  C66       1.949  1.900  0.770   12.000    Y    Y      Y    6-31g**
  C67       1.949  1.900  0.770   12.000    Y    Y      Y    6-31g**
  C68       1.949  1.900  0.770   12.000    Y    Y      Y    6-31g**
  C69       1.949  1.900  0.770   12.000    Y    Y      Y    6-31g**
  C70       1.949  1.900  0.770   12.000    Y    Y      Y    6-31g**
  N71       1.831  1.600  0.750   14.003    Y    Y      Y    6-31g**
  S72       2.070  1.900  1.020   31.972    Y    Y      Y    6-31g**
  O73       1.702  1.600  0.730   15.995    Y    Y      Y    6-31g**
  O74       1.702  1.600  0.730   15.995    Y    Y      Y    6-31g**
  C75       1.949  1.900  0.770   12.000    Y    Y      Y    6-31g**
  C76       1.949  1.900  0.770   12.000    Y    Y      Y    6-31g**
  C77       1.949  1.900  0.770   12.000    Y    Y      Y    6-31g**
  C78       1.949  1.900  0.770   12.000    Y    Y      Y    6-31g**
  C79       1.949  1.900  0.770   12.000    Y    Y      Y    6-31g**
  N80       1.831  1.600  0.750   14.003    Y    Y      Y    6-31g**
  N81       1.831  1.600  0.750   14.003    Y    Y      Y    6-31g**
  C82       1.949  1.900  0.770   12.000    Y    Y      Y    6-31g**
  C83       1.949  1.900  0.770   12.000    Y    Y      Y    6-31g**
  C84       1.949  1.900  0.770   12.000    Y    Y      Y    6-31g**
  C85       1.949  1.900  0.770   12.000    Y    Y      Y    6-31g**
  H86       1.597  1.150  0.320    1.008    Y    Y      Y    6-31g**
  H87       1.597  1.150  0.320    1.008    Y    Y      Y    6-31g**
  H88       1.597  1.150  0.320    1.008    Y    Y      Y    6-31g**
  H89       1.597  1.150  0.320    1.008    Y    Y      Y    6-31g**
  H90       1.597  1.150  0.320    1.008    Y    Y      Y    6-31g**
  H91       1.597  1.150  0.320    1.008    Y    Y      Y    6-31g**
  H92       1.597  1.150  0.320    1.008    Y    Y      Y    6-31g**
  H93       1.597  1.150  0.320    1.008    Y    Y      Y    6-31g**
  H94       1.597  1.150  0.320    1.008    Y    Y      Y    6-31g**
  H95       1.597  1.150  0.320    1.008    Y    Y      Y    6-31g**
  H96       1.597  1.150  0.320    1.008    Y    Y      Y    6-31g**
  H97       1.597  1.150  0.320    1.008    Y    Y      Y    6-31g**
  H98       1.597  1.150  0.320    1.008    Y    Y      Y    6-31g**
  H99       1.597  1.150  0.320    1.008    Y    Y      Y    6-31g**
  H100      1.597  1.150  0.320    1.008    Y    Y      Y    6-31g**
  H101      1.597  1.150  0.320    1.008    Y    Y      Y    6-31g**
  H102      1.597  1.150  0.320    1.008    Y    Y      Y    6-31g**
  H103      1.597  1.150  0.320    1.008    Y    Y      Y    6-31g**
  H104      1.597  1.150  0.320    1.008    Y    Y      Y    6-31g**
  H105      1.597  1.150  0.320    1.008    Y    Y      Y    6-31g**
  H106      1.597  1.150  0.320    1.008    Y    Y      Y    6-31g**
  H107      1.597  1.150  0.320    1.008    Y    Y      Y    6-31g**
  H108      1.597  1.150  0.320    1.008    Y    Y      Y    6-31g**
  H109      1.597  1.150  0.320    1.008    Y    Y      Y    6-31g**
  H110      1.597  1.150  0.320    1.008    Y    Y      Y    6-31g**
  H111      1.597  1.150  0.320    1.008    Y    Y      Y    6-31g**
  H112      1.597  1.150  0.320    1.008    Y    Y      Y    6-31g**
  H113      1.597  1.150  0.320    1.008    Y    Y      Y    6-31g**
  H114      1.597  1.150  0.320    1.008    Y    Y      Y    6-31g**
  H115      1.597  1.150  0.320    1.008    Y    Y      Y    6-31g**
  H116      1.597  1.150  0.320    1.008    Y    Y      Y    6-31g**
  H117      1.597  1.150  0.320    1.008    Y    Y      Y    6-31g**
  H118      1.597  1.150  0.320    1.008    Y    Y      Y    6-31g**
  H119      1.597  1.150  0.320    1.008    Y    Y      Y    6-31g**
  H120      1.597  1.150  0.320    1.008    Y    Y      Y    6-31g**
  H121      1.597  1.150  0.320    1.008    Y    Y      Y    6-31g**
  H122      1.597  1.150  0.320    1.008    Y    Y      Y    6-31g**
  H123      1.597  1.150  0.320    1.008    Y    Y      Y    6-31g**
  H124      1.597  1.150  0.320    1.008    Y    Y      Y    6-31g**
  H125      1.597  1.150  0.320    1.008    Y    Y      Y    6-31g**
  H126      1.597  1.150  0.320    1.008    Y    Y      Y    6-31g**
  H127      1.597  1.150  0.320    1.008    Y    Y      Y    6-31g**
  H128      1.597  1.150  0.320    1.008    Y    Y      Y    6-31g**
  H129      1.597  1.150  0.320    1.008    Y    Y      Y    6-31g**
  H130      1.597  1.150  0.320    1.008    Y    Y      Y    6-31g**
  H131      1.597  1.150  0.320    1.008    Y    Y      Y    6-31g**
  H132      1.597  1.150  0.320    1.008    Y    Y      Y    6-31g**
  H133      1.597  1.150  0.320    1.008    Y    Y      Y    6-31g**
  H134      1.597  1.150  0.320    1.008    Y    Y      Y    6-31g**
  H135      1.597  1.150  0.320    1.008    Y    Y      Y    6-31g**
  H136      1.597  1.150  0.320    1.008    Y    Y      Y    6-31g**
  H137      1.597  1.150  0.320    1.008    Y    Y      Y    6-31g**
  H138      1.597  1.150  0.320    1.008    Y    Y      Y    6-31g**
  H139      1.597  1.150  0.320    1.008    Y    Y      Y    6-31g**
  H140      1.597  1.150  0.320    1.008    Y    Y      Y    6-31g**
  S141      2.070  1.900  1.020   31.972    Y    Y      Y    6-31g**
  O142      1.702  1.600  0.730   15.995    Y    Y      Y    6-31g**
  C143      1.949  1.900  0.770   12.000    Y    Y      Y    6-31g**
  O144      1.702  1.600  0.730   15.995    Y    Y      Y    6-31g**
  F145      1.736  1.682  0.720   18.998    Y    Y      Y    6-31g**
  F146      1.736  1.682  0.720   18.998    Y    Y      Y    6-31g**
  F147      1.736  1.682  0.720   18.998    Y    Y      Y    6-31g**
  H148      1.597  1.150  0.320    1.008    Y    Y      Y    6-31g**
  
  Peak memory usage:    768 Mb
  
  end of program pre
   
 Time(pre)  user:        0.8  user+sys:        0.8  wallclock:        1.4
  
  start of program onee
  
  smallest eigenvalue of S:    2.353E-04
  number of canonical orbitals.....         1673
  Peak memory usage:    900 Mb
  
  end of program onee
   
 Time(onee)  user:       16.3  user+sys:       16.3  wallclock:       17.8
  
  start of program hfig
  
  initial wavefunction generated automatically from atomic wavefunctions
 
  Irreducible     Total no   No of occupied orbitals 
  representation  orbitals   Shell_1  Shell_2    ...
  No Symm         1673        340
  ------------------------
  Orbital occupation/shell    1.000
 
  Peak memory usage:    833 Mb
  
  end of program hfig
   
 Time(hfig)  user:       28.7  user+sys:       28.7  wallclock:       30.0
  
  start of program probe
  
  Peak memory usage:    826 Mb
  
  end of program probe
   
 Time(probe)  user:       19.6  user+sys:       19.6  wallclock:       20.4
  
  start of program grid
  
   grid     grid set  grid #  grid sym
  ------    --------  ------  --------
  coarse        0        0        1
  medium        2        1        1
  fine          0        0        1
  ultrafine     4        2        1
  charge       -1        3        1
  gradient      4        2        1
  density       0        0        1
  DFT-fine    -13        4        1
  DFT-med.    -13        4        1
  DFT-grad    -13        4        1
  DFT-der2      0        0        1
  DFT-cphf      0        0        1
  LMP2-enrg     4        2        1
  LMP2-grad     2        1        1
  DFT-cphf2     0        0        1
  PBF-dens      0        0        1
  plotting      0        0        1
  Rel-grad    -17        0        1
  
  number of gridpoints: 
     atom        C1       C2       C3       C4       C5       C6       C7
  grid # 1       97      101       94      102      100       96       93
  grid # 2      338      360      336      366      359      335      336
  grid # 3       31       27       41       47       17       47       27
  grid # 4    48124    48124    48124    48124    48124    48124    48124
   
  number of gridpoints: 
     atom        C8       C9      C10      C11      O12     Si13      C14
  grid # 1       94       97      100      100      109      481      101
  grid # 2      335      355      353      359      433      481      355
  grid # 3       50       18       11       13       27        8        9
  grid # 4    48124    48124    48124    48124    47716    38542    48124
   
  number of gridpoints: 
     atom       C15      C16      C17      C18      C19      C20     Si21
  grid # 1       97      101       96       94       98      101      469
  grid # 2      353      365      334      331      339      356      469
  grid # 3       17       31       16       19       37       11       11
  grid # 4    48124    48124    48124    48124    48124    48124    38542
   
  number of gridpoints: 
     atom       O22      C23      C24      P25      O26      N27      C28
  grid # 1      112       92       94      445      117      109       99
  grid # 2      438      339      339      445      448      399      360
  grid # 3       55       30       39        6       52       26       13
  grid # 4    47716    48124    48124    38640    47716    47928    48124
   
  number of gridpoints: 
     atom       C29      C30      C31      C32      C33      C34      C35
  grid # 1       99      101       99      101      101       92       94
  grid # 2      356      360      357      359      360      337      336
  grid # 3        9        9       11       21       20       28       22
  grid # 4    48124    48124    48124    48124    48124    48124    48124
   
  number of gridpoints: 
     atom       C36      C37      C38      C39      C40      C41      C42
  grid # 1       92       94       92       96       92       94       93
  grid # 2      335      333      333      334      336      330      338
  grid # 3       20       12       21       15       24       11       37
  grid # 4    48124    48124    48124    48124    48124    48124    48124
   
  number of gridpoints: 
     atom       C43      C44      C45      C46      C47      C48      C49
  grid # 1       95       93       96       94       94       94       93
  grid # 2      334      335      334      335      336      335      332
  grid # 3       25       33       25       47       48       40       28
  grid # 4    48124    48124    48124    48124    48124    48124    48124
   
  number of gridpoints: 
     atom       C50      C51      C52      C53      C54      C55      C56
  grid # 1       93       92       93       93       93       93       93
  grid # 2      332      332      333      335      334      332      332
  grid # 3       28       19       35       35       24       29       27
  grid # 4    48124    48124    48124    48124    48124    48124    48124
   
  number of gridpoints: 
     atom       C57      C58      C59      C60      C61      C62      C63
  grid # 1       92       94       94       93       93       93       93
  grid # 2      335      336      336      337      336      334      333
  grid # 3       25       46       48       42       40       35       33
  grid # 4    48124    48124    48124    48124    48124    48124    48124
   
  number of gridpoints: 
     atom       C64      C65      C66      C67      C68      C69      C70
  grid # 1       96       96      101       96       96       96       91
  grid # 2      334      333      363      332      331      331      314
  grid # 3       45       39       33       39       38       40        6
  grid # 4    48124    48124    48124    48124    48124    48124    48124
   
  number of gridpoints: 
     atom       N71      S72      O73      O74      C75      C76      C77
  grid # 1       99      445      119      123       98       96       96
  grid # 2      357      445      481      504      360      330      332
  grid # 3       33       13      127      301       37       39       39
  grid # 4    47928    48492    47716    47716    48124    48124    48124
   
  number of gridpoints: 
     atom       C78      C79      N80      N81      C82      C83      C84
  grid # 1       96       96      113       98       92       92       93
  grid # 2      333      340      427      349      328      327      328
  grid # 3       43       42      140       16       16       17       11
  grid # 4    48124    48124    47928    47928    48124    48124    48124
   
  number of gridpoints: 
     atom       C85      H86      H87      H88      H89      H90      H91
  grid # 1       90      111      118      118      109      118      114
  grid # 2      314      433      451      446      427      453      436
  grid # 3        7      217      418      359      174      425      253
  grid # 4    48124    48426    48426    48426    48426    48426    48426
   
  number of gridpoints: 
     atom       H92      H93      H94      H95      H96      H97      H98
  grid # 1      113      118      118      118      111      112      104
  grid # 2      430      443      449      450      435      436      411
  grid # 3      200      364      408      417      227      255       71
  grid # 4    48426    48426    48426    48426    48426    48426    48426
   
  number of gridpoints: 
     atom       H99     H100     H101     H102     H103     H104     H105
  grid # 1      112      110      110      109      112      112      110
  grid # 2      438      432      428      422      431      431      425
  grid # 3      271      214      177      163      233      230      186
  grid # 4    48426    48426    48426    48426    48426    48426    48426
   
  number of gridpoints: 
     atom      H106     H107     H108     H109     H110     H111     H112
  grid # 1      111      107      118      118      118      112      117
  grid # 2      428      411      453      453      452      433      450
  grid # 3      200      106      419      424      420      232      362
  grid # 4    48426    48426    48426    48426    48426    48426    48426
   
  number of gridpoints: 
     atom      H113     H114     H115     H116     H117     H118     H119
  grid # 1      117      112      117      113      111      116      117
  grid # 2      452      437      448      430      434      443      449
  grid # 3      407      255      365      200      231      320      359
  grid # 4    48426    48426    48426    48426    48426    48426    48426
   
  number of gridpoints: 
     atom      H120     H121     H122     H123     H124     H125     H126
  grid # 1      118      118      118      118      116      113      118
  grid # 2      453      453      452      451      449      437      450
  grid # 3      419      424      418      410      380      253      410
  grid # 4    48426    48426    48426    48426    48426    48426    48426
   
  number of gridpoints: 
     atom      H127     H128     H129     H130     H131     H132     H133
  grid # 1      113      106      109      115      104      109      115
  grid # 2      437      408      425      442      412      422      446
  grid # 3      284       74      200      328      132      177      352
  grid # 4    48426    48426    48426    48426    48426    48426    48426
   
  number of gridpoints: 
     atom      H134     H135     H136     H137     H138     H139     H140
  grid # 1      117      118      101      110      116      114      104
  grid # 2      451      453      394      420      458      449      410
  grid # 3      411      451       74      142      413      332       87
  grid # 4    48426    48426    48426    48426    48426    48426    48426
   
  number of gridpoints: 
     atom      S141     O142     C143     O144     F145     F146     F147
  grid # 1      430      116       90      117      515      529      532
  grid # 2      430      458      320      474      515      529      532
  grid # 3       10       46        7       92       98      194      171
  grid # 4    48492    47716    48124    47716    47062    47062    47062
   
  number of gridpoints: 
     atom      H148    total
  grid # 1       98    18366
  grid # 2      393    57834
  grid # 3       60    19240
  grid # 4    48426  7104526
   
  Peak memory usage:    795 Mb
  
  end of program grid
   
 Time(grid)  user:     1123.2  user+sys:     1123.2  wallclock:     1143.0
  
  start of program rwr
  
  Peak memory usage:    814 Mb
  
  end of program rwr
   
 Time(rwr)  user:       64.9  user+sys:       64.9  wallclock:       72.0
  
  start of program scf
  
 number of electrons..........        680
 number of alpha electrons....        340
 number of beta electrons.....        340
 number of orbitals, total....       1673
 number of doubly-occ'd orbs..        340
 number of open shell orbs....          0
 number of occupied orbitals..        340
 number of virtual orbitals...       1333
 number of hamiltonians.......          1
 number of shells.............          1
 SCF type: DFT=M06-2X
 Energy computed with NOPS off.
  
       i  u  d  i  g                   
       t  p  i  c  r                                 RMS    maximum
       e  d  i  u  i                       energy  density   DIIS  
       r  t  s  t  d       total energy    change  change    error 
  
etot    1  N  N  1  U   -5562.66802276555           4.0E-03  1.1E-01
etot    2  N  Y  1  U   -5527.07956065388 -3.6E+01  2.1E-02  1.5E-01
etot    3  N  Y  1  U   -5278.13051983442 -2.5E+02  2.0E-02  3.5E-01
etot    4  N  Y  1  U   -5568.36393103687  2.9E+02  2.6E-03  1.2E-01
etot    5  N  Y  1  U   -5570.84806592964  2.5E+00  2.3E-03  6.4E-02
etot    6  N  Y  1  U   -5563.65040047353 -7.2E+00  1.7E-03  9.6E-02
etot    7  N  Y  1  U   -5575.36830834342  1.2E+01  4.1E-04  2.2E-02
etot    8  N  Y  1  U   -5575.51816521410  1.5E-01  1.6E-04  1.5E-02
etot    9  N  Y  1  U   -5575.56040990889  4.2E-02  5.2E-05  2.2E-03
etot   10  N  Y  1  U   -5575.56477554907  4.4E-03  2.3E-05  1.3E-03
etot   11  N  Y  1  U   -5575.56566269601  8.9E-04  1.2E-05  8.1E-04
etot   12  N  Y  1  U   -5575.56595457126  2.9E-04  5.8E-06  3.7E-04
etot   13  N  Y  1  U   -5575.56603591022  8.1E-05  4.1E-06  2.2E-04
etot   14  N  N  1  U   -5575.56606465910  2.9E-05  0.0E+00  0.0E+00
  
  
 Energy components, in hartrees:
   (A)  Nuclear repulsion............   20736.47633467267
   (E)  Total one-electron terms.....  -48999.84574943696
   (F)    Electron-nuclear...........  -54535.91850537177
   (H)    Kinetic....................    5536.07275593481
   (I)  Total two-electron terms.....   22687.80335010518
   (J)    Coulomb....................   23339.09422580582
   (K)    Exchange+Correlation.......    -651.29087570064
   (L)  Electronic energy............  -26312.04239933177  (E+I)
   (M)  -V/T.........................       2.00713381317  (-(A+F+I)/H)
   (N)  Total energy.................   -5575.56606465910  (A+L)
   (O)  Gas phase energy.............   -5575.56606465910
  
 SCFE: SCF energy: DFT(m06-2x)     -5575.56606465910 hartrees   iterations:  14
  
 
 HOMO energy:    -0.25180
 LUMO energy:    -0.07230
 
  Orbital energies (hartrees): 
   -90.15350   -90.15232   -78.21515   -67.01081   -67.00533   -25.28439
   -25.28088   -25.28052   -19.69533   -19.68897   -19.63434   -19.63310
   -19.63260   -19.62347   -19.61398   -14.85524   -14.78738   -14.78030
   -14.73770   -10.79981   -10.66647   -10.63394   -10.63305   -10.62534
   -10.62347   -10.62123   -10.62037   -10.60802   -10.59912   -10.58030
   -10.57477   -10.57408   -10.57320   -10.57004   -10.56901   -10.56858
   -10.56635   -10.56505   -10.56220   -10.56113   -10.56054   -10.56002
   -10.55900   -10.55893   -10.55828   -10.55774   -10.55431   -10.55296
   -10.55237   -10.55214   -10.55212   -10.55200   -10.55200   -10.55199
   -10.55140   -10.55121   -10.55107   -10.55096   -10.55075   -10.55034
   -10.55023   -10.55019   -10.55002   -10.54988   -10.54969   -10.54968
   -10.54968   -10.54863   -10.54858   -10.54852   -10.54792   -10.54767
   -10.54743   -10.54548   -10.54541   -10.54264   -10.54208   -10.54156
   -10.54090   -10.54052   -10.54043   -10.54005   -10.53995   -10.53900
   -10.53778   -10.53755   -10.53515   -10.53508   -10.53325   -10.53012
   -10.52841   -10.52520    -8.46344    -8.46168    -6.99446    -6.38534
    -6.38465    -6.38406    -6.38376    -6.38319    -6.38300    -5.54181
    -5.53698    -5.11306    -5.11163    -5.11060    -3.85159    -3.85126
    -3.85117    -3.84679    -3.84647    -3.84617    -1.44892    -1.35841
    -1.35642    -1.23214    -1.22593    -1.21713    -1.18755    -1.14527
    -1.11078    -1.10376    -1.09684    -1.07232    -1.04055    -0.98946
    -0.98032    -0.96647    -0.96601    -0.94713    -0.94415    -0.94368
    -0.93951    -0.93807    -0.93755    -0.93327    -0.92098    -0.91500
    -0.91029    -0.90313    -0.88920    -0.87947    -0.85904    -0.85231
    -0.84857    -0.84598    -0.84206    -0.83980    -0.83664    -0.83579
    -0.83562    -0.83177    -0.83024    -0.82905    -0.82854    -0.82777
    -0.82503    -0.82400    -0.82350    -0.82078    -0.81868    -0.80045
    -0.79418    -0.76328    -0.75216    -0.72864    -0.72714    -0.72284
    -0.71046    -0.70849    -0.70523    -0.69796    -0.69624    -0.69047
    -0.68829    -0.68384    -0.68377    -0.68101    -0.67762    -0.67631
    -0.67571    -0.67390    -0.67247    -0.67226    -0.67021    -0.66840
    -0.66596    -0.66534    -0.66208    -0.66127    -0.65864    -0.65635
    -0.65064    -0.63946    -0.63455    -0.62590    -0.60955    -0.60474
    -0.60157    -0.60045    -0.58844    -0.58707    -0.58353    -0.58262
    -0.58202    -0.57997    -0.57767    -0.57484    -0.57293    -0.56711
    -0.56670    -0.56037    -0.55913    -0.55653    -0.55281    -0.55031
    -0.54721    -0.54290    -0.54031    -0.53822    -0.53731    -0.53013
    -0.52893    -0.52761    -0.52456    -0.52313    -0.52101    -0.51999
    -0.51808    -0.51721    -0.51567    -0.51379    -0.51314    -0.51180
    -0.51167    -0.50856    -0.50564    -0.50317    -0.50181    -0.50120
    -0.49985    -0.49802    -0.49702    -0.49701    -0.49541    -0.49520
    -0.49468    -0.49318    -0.49151    -0.49059    -0.49012    -0.48841
    -0.48699    -0.48373    -0.48344    -0.48285    -0.48219    -0.47976
    -0.47773    -0.47687    -0.47263    -0.47069    -0.47024    -0.46492
    -0.45526    -0.45362    -0.45221    -0.44985    -0.44936    -0.44878
    -0.44561    -0.44388    -0.43854    -0.43551    -0.43227    -0.42989
    -0.42740    -0.42483    -0.42355    -0.42269    -0.41911    -0.41769
    -0.41517    -0.41418    -0.41144    -0.41080    -0.40585    -0.40579
    -0.40005    -0.39751    -0.39548    -0.39429    -0.39348    -0.39263
    -0.39230    -0.39165    -0.38794    -0.38730    -0.38431    -0.38314
    -0.38075    -0.37870    -0.37858    -0.37487    -0.37218    -0.37191
    -0.36939    -0.35862    -0.35714    -0.35318    -0.35243    -0.34656
    -0.34408    -0.34050    -0.33909    -0.33597    -0.33364    -0.33206
    -0.33092    -0.32786    -0.32373    -0.32135    -0.31102    -0.30740
    -0.30606    -0.30473    -0.30200    -0.30143    -0.30094    -0.29598
    -0.29317    -0.29287    -0.29241    -0.29075    -0.28904    -0.28619
    -0.28477    -0.28181    -0.27250    -0.25180    -0.07230    -0.01970
    -0.01117     0.00081     0.00828     0.01014     0.01560     0.01725
     0.01941     0.02074
 
  Peak memory usage:   1028 Mb
  
  end of program scf
   
 Time(scf)  user:    31556.2  user+sys:    31556.2  wallclock:    31886.3
  
  start of program ch
  
  gridpoints used for charge fit        16686
    out of a possible maximum of        19240
  
   Electrostatic potential fitting constrained to reproduce
     total charge:                yes
     dipole moment:               no 
     traceless quadrupole moment: no 
     traceless octapole moment:   no 
  
  Atomic charges from electrostatic potential: 
   
 Atom       C1           C2           C3           C4           C5      
 Charge   -0.15011      0.00183     -0.15102      0.17703      0.15398
   
 Atom       C6           C7           C8           C9           C10     
 Charge   -0.19803     -0.38603     -0.12984     -0.23963     -0.22678
   
 Atom       C11          O12          Si13         C14          C15     
 Charge    0.26156     -0.03628     -0.11788      0.17041      0.17448
   
 Atom       C16          C17          C18          C19          C20     
 Charge    0.25548     -0.18513     -0.45189     -0.26197      0.01423
   
 Atom       Si21         O22          C23          C24          P25     
 Charge    0.09644     -0.20092     -0.14521     -0.10983      0.80319
   
 Atom       O26          N27          C28          C29          C30     
 Charge   -0.58883     -0.62053      0.07735      0.10330      0.13432
   
 Atom       C31          C32          C33          C34          C35     
 Charge    0.08323     -0.04010      0.03955     -0.10232     -0.19996
   
 Atom       C36          C37          C38          C39          C40     
 Charge   -0.14101     -0.15610     -0.14398     -0.13668     -0.16926
   
 Atom       C41          C42          C43          C44          C45     
 Charge   -0.07967     -0.04293     -0.16448     -0.14444     -0.12973
   
 Atom       C46          C47          C48          C49          C50     
 Charge   -0.15255     -0.14121     -0.09616     -0.15177     -0.12108
   
 Atom       C51          C52          C53          C54          C55     
 Charge   -0.13961     -0.14903     -0.12847     -0.12746     -0.16196
   
 Atom       C56          C57          C58          C59          C60     
 Charge   -0.09070     -0.16412     -0.16491     -0.12268     -0.10921
   
 Atom       C61          C62          C63          C64          C65     
 Charge   -0.12968     -0.12266     -0.11693     -0.10837     -0.22221
   
 Atom       C66          C67          C68          C69          C70     
 Charge    0.18724     -0.22009      0.00741     -0.18957      0.11771
   
 Atom       N71          S72          O73          O74          C75     
 Charge   -0.63914      0.62837     -0.47729     -0.41621      0.69252
   
 Atom       C76          C77          C78          C79          N80     
 Charge   -0.58861      0.28153     -0.51587      0.43539     -0.64328
   
 Atom       N81          C82          C83          C84          C85     
 Charge   -0.15033      0.08151     -0.18329     -0.26157      0.18543
   
 Atom       H86          H87          H88          H89          H90     
 Charge    0.12132      0.14171      0.13826      0.17825      0.13691
   
 Atom       H91          H92          H93          H94          H95     
 Charge    0.12961      0.21786      0.15659      0.14212      0.13144
   
 Atom       H96          H97          H98          H99          H100    
 Charge    0.10068      0.13409      0.11189      0.11476      0.11831
   
 Atom       H101         H102         H103         H104         H105    
 Charge    0.10799      0.16513      0.09000      0.07060      0.14004
   
 Atom       H106         H107         H108         H109         H110    
 Charge    0.12139      0.06372      0.13532      0.13226      0.12289
   
 Atom       H111         H112         H113         H114         H115    
 Charge    0.13754      0.12240      0.13420      0.12133      0.11619
   
 Atom       H116         H117         H118         H119         H120    
 Charge    0.11617      0.17495      0.10970      0.11632      0.13811
   
 Atom       H121         H122         H123         H124         H125    
 Charge    0.12861      0.12013      0.12974      0.12156      0.10763
   
 Atom       H126         H127         H128         H129         H130    
 Charge    0.13660      0.12258      0.10888      0.09523      0.14105
   
 Atom       H131         H132         H133         H134         H135    
 Charge    0.11346      0.26127      0.08889      0.20144      0.05049
   
 Atom       H136         H137         H138         H139         H140    
 Charge    0.32989      0.17530      0.19002      0.21594      0.17268
   
 Atom       S141         O142         C143         O144         F145    
 Charge    0.75674     -0.51394      0.43562     -0.46873     -0.12316
   
 Atom       F146         F147         H148    
 Charge   -0.14318     -0.15261      0.38088
  
  sum of atomic charges:     0.000000
   
 RMS Error   1.05E-03 hartrees
 
  Peak memory usage:    816 Mb
  
  end of program ch
   
 Time(ch)  user:       16.2  user+sys:       16.2  wallclock:       18.2
  
  start of program post
  
  Writing input files for PBF
  Peak memory usage:    759 Mb
  
  end of program post
   
 Time(post)  user:        0.6  user+sys:        0.6  wallclock:        1.0

  start of program pbf

Pbf Version 4.10

Molecular surface area:      841.24263   [A2]
Reaction field energy:       -20.73761   [kT]
  Peak memory usage: 722 Mb

  end of program pbf

 Time(pbf)  user:        5.3  user+sys:        5.5  wallclock:        5.9
  
  start of program solv
  
   number of surface charges from PBF   13480
   sum of surface charges     -0.00020
   
  nuclear repulsion energy.......   20736.476334673 hartrees
  Peak memory usage:    894 Mb
  
  end of program solv
   
 Time(solv)  user:       32.6  user+sys:       32.6  wallclock:       33.4
  
  start of program scf
  
 Energy computed with NOPS off.
  
       i  u  d  i  g                   
       t  p  i  c  r                                 RMS    maximum
       e  d  i  u  i                       energy  density   DIIS  
       r  t  s  t  d       total energy    change  change    error 
  
etot    1  N  N  1  U   -5575.60859690170           6.2E-05  1.5E-03
etot    2  N  Y  1  U   -5575.60962220453  1.0E-03  1.9E-05  1.1E-03
etot    3  N  Y  1  U   -5575.60997747949  3.6E-04  5.6E-06  5.5E-04
etot    4  N  Y  1  U   -5575.61004151222  6.4E-05  2.3E-06  1.1E-04
etot    5  N  N  1  U   -5575.61004758714  6.1E-06  0.0E+00  0.0E+00
  
  
 Energy components, in hartrees:
   (A)  Total zero-electron terms....   20739.29215127273
   (B)    Nuclear-nuclear............   20736.47633467267
   (C)    Nuclear-solvent............       2.81581660006
   (E)  Total one-electron terms.....  -49004.27469275397
   (F)    Electron-nuclear...........  -54537.55193561145
   (G)    Electron-solvent...........      -2.86122126329
   (H)    Kinetic....................    5536.13846412077
   (I)  Total two-electron terms.....   22689.37249389410
   (J)    Coulomb....................   23340.68761771664
   (K)    Exchange+Correlation.......    -651.31512382254
   (L)  Electronic energy............  -26314.90219885987  (E+I)
   (N)  Total quantum mech. energy...   -5575.61004758714  (A+L)
   (O)  Gas phase energy.............   -5575.56606465910
   (P)  Solution phase energy........   -5575.58734525552  (Q+R+S)
   (Q)    Total solute energy........   -5575.56464292390  (N-C-G)
   (R)    Total solvent energy.......      -0.02270233162  (C/2+G/2)
   (S)    Solute cavity energy.......       0.00000000000
   (U)  Reorganization energy........       0.00142173520  (Q-O)
   (V)  Solvation energy.............      -0.02128059642  (P-O)
  
 SCFE:  Solution phase energy: DFT(m06-2x)      -5575.58734525552 hartrees
        SCF iterations:   5
  
 
 HOMO energy:    -0.25380
 LUMO energy:    -0.06812
 
  Orbital energies (hartrees): 
   -90.16083   -90.15883   -78.21759   -67.01255   -67.00760   -25.28963
   -25.28663   -25.28615   -19.69733   -19.69135   -19.64330   -19.64135
   -19.63687   -19.62906   -19.61528   -14.85221   -14.79195   -14.78377
   -14.74190   -10.80505   -10.66216   -10.63305   -10.63163   -10.62748
   -10.62552   -10.62491   -10.61415   -10.60022   -10.60012   -10.58073
   -10.57547   -10.57442   -10.57369   -10.57340   -10.57181   -10.57051
   -10.56870   -10.56352   -10.56278   -10.56252   -10.56021   -10.56001
   -10.55942   -10.55880   -10.55796   -10.55729   -10.55454   -10.55425
   -10.55411   -10.55314   -10.55283   -10.55278   -10.55260   -10.55259
   -10.55258   -10.55251   -10.55235   -10.55190   -10.55190   -10.55190
   -10.55155   -10.55147   -10.55123   -10.55070   -10.55057   -10.55032
   -10.54987   -10.54981   -10.54942   -10.54920   -10.54919   -10.54866
   -10.54806   -10.54694   -10.54624   -10.54512   -10.54395   -10.54386
   -10.54262   -10.54258   -10.54246   -10.54238   -10.54201   -10.54065
   -10.54019   -10.54004   -10.53703   -10.53624   -10.53553   -10.53211
   -10.53049   -10.52788    -8.47189    -8.46689    -6.99691    -6.39374
    -6.39320    -6.39247    -6.38897    -6.38842    -6.38824    -5.54355
    -5.53925    -5.11549    -5.11408    -5.11305    -3.85333    -3.85300
    -3.85290    -3.84906    -3.84873    -3.84844    -1.45448    -1.36385
    -1.36213    -1.23507    -1.23453    -1.22195    -1.18984    -1.14205
    -1.12041    -1.10881    -1.09835    -1.07584    -1.04432    -0.99326
    -0.98280    -0.96812    -0.96583    -0.94830    -0.94612    -0.94501
    -0.94117    -0.93978    -0.93586    -0.93241    -0.92297    -0.91654
    -0.91192    -0.90268    -0.89118    -0.88068    -0.85723    -0.85415
    -0.84742    -0.84735    -0.84402    -0.84042    -0.83794    -0.83784
    -0.83730    -0.83352    -0.83181    -0.83067    -0.82980    -0.82973
    -0.82691    -0.82623    -0.82539    -0.82504    -0.82100    -0.80215
    -0.79548    -0.76639    -0.75361    -0.73147    -0.72927    -0.71930
    -0.71034    -0.70863    -0.70682    -0.69980    -0.69359    -0.69234
    -0.68691    -0.68455    -0.68426    -0.68395    -0.67903    -0.67812
    -0.67787    -0.67746    -0.67662    -0.67430    -0.67166    -0.66975
    -0.66737    -0.66665    -0.66276    -0.66161    -0.65986    -0.65813
    -0.65239    -0.64170    -0.63709    -0.62770    -0.61076    -0.60600
    -0.60308    -0.60174    -0.59120    -0.59099    -0.58466    -0.58365
    -0.58234    -0.58085    -0.57889    -0.57607    -0.57450    -0.56913
    -0.56322    -0.56199    -0.56130    -0.56027    -0.55637    -0.55296
    -0.54860    -0.54407    -0.54271    -0.53929    -0.53679    -0.53150
    -0.53076    -0.52979    -0.52903    -0.52644    -0.52372    -0.52140
    -0.52039    -0.51835    -0.51794    -0.51640    -0.51542    -0.51309
    -0.51146    -0.50912    -0.50680    -0.50461    -0.50262    -0.50137
    -0.50057    -0.49948    -0.49894    -0.49793    -0.49779    -0.49630
    -0.49447    -0.49397    -0.49275    -0.49198    -0.49121    -0.48981
    -0.48697    -0.48536    -0.48469    -0.48398    -0.48290    -0.48112
    -0.47914    -0.47822    -0.47428    -0.47244    -0.47019    -0.46651
    -0.45624    -0.45515    -0.45345    -0.45143    -0.45070    -0.44744
    -0.44701    -0.44567    -0.44051    -0.43608    -0.43378    -0.43227
    -0.42894    -0.42706    -0.42547    -0.42472    -0.42090    -0.41982
    -0.41981    -0.41681    -0.41312    -0.41148    -0.40679    -0.40490
    -0.40233    -0.40227    -0.39902    -0.39760    -0.39578    -0.39425
    -0.39314    -0.39252    -0.39021    -0.38885    -0.38709    -0.38546
    -0.38504    -0.38257    -0.38156    -0.38035    -0.37571    -0.37445
    -0.36691    -0.36363    -0.35890    -0.35573    -0.35443    -0.34807
    -0.34585    -0.34232    -0.34093    -0.33937    -0.33814    -0.33601
    -0.33390    -0.33082    -0.32686    -0.32501    -0.31056    -0.30807
    -0.30719    -0.30635    -0.30406    -0.30340    -0.30286    -0.29799
    -0.29579    -0.29485    -0.29436    -0.29341    -0.29085    -0.28847
    -0.28678    -0.28446    -0.27485    -0.25380    -0.06812    -0.02165
    -0.01424    -0.00162     0.00641     0.00809     0.01396     0.01627
     0.01892     0.01950
 
  Peak memory usage:   1029 Mb
  
  end of program scf
   
 Time(scf)  user:     9238.4  user+sys:     9238.4  wallclock:     9323.5
  
  start of program sole
  
    SCRF                   solvation energy
  iteration          Hartrees            kcal/mol
     0               0.0000000            0.0000
     1              -0.0212806          -13.3538
  
  solvation energy not yet converged... 
  
  Peak memory usage:    813 Mb
  
  end of program sole
   
 Time(sole)  user:        0.1  user+sys:        0.1  wallclock:        0.3
  
  start of program ch
  
  gridpoints used for charge fit        16686
    out of a possible maximum of        16686
  
   Electrostatic potential fitting constrained to reproduce
     total charge:                yes
     dipole moment:               no 
     traceless quadrupole moment: no 
     traceless octapole moment:   no 
  
  Atomic charges from electrostatic potential: 
   
 Atom       C1           C2           C3           C4           C5      
 Charge   -0.14927      0.00037     -0.15891      0.18137      0.16681
   
 Atom       C6           C7           C8           C9           C10     
 Charge   -0.20737     -0.40256     -0.13374     -0.26786     -0.23434
   
 Atom       C11          O12          Si13         C14          C15     
 Charge    0.28617     -0.01766     -0.15544      0.17484      0.16578
   
 Atom       C16          C17          C18          C19          C20     
 Charge    0.25596     -0.18742     -0.46476     -0.26953      0.03111
   
 Atom       Si21         O22          C23          C24          P25     
 Charge    0.09189     -0.18001     -0.15170     -0.11658      0.76289
   
 Atom       O26          N27          C28          C29          C30     
 Charge   -0.57284     -0.61145      0.08852      0.11954      0.14709
   
 Atom       C31          C32          C33          C34          C35     
 Charge    0.08343     -0.04797      0.03380     -0.10759     -0.20741
   
 Atom       C36          C37          C38          C39          C40     
 Charge   -0.15682     -0.15964     -0.16305     -0.13409     -0.16715
   
 Atom       C41          C42          C43          C44          C45     
 Charge   -0.07533     -0.04226     -0.16526     -0.15466     -0.12725
   
 Atom       C46          C47          C48          C49          C50     
 Charge   -0.16209     -0.14828     -0.10283     -0.16042     -0.12526
   
 Atom       C51          C52          C53          C54          C55     
 Charge   -0.15042     -0.14462     -0.13223     -0.15156     -0.17177
   
 Atom       C56          C57          C58          C59          C60     
 Charge   -0.09602     -0.17286     -0.17533     -0.12837     -0.11655
   
 Atom       C61          C62          C63          C64          C65     
 Charge   -0.12878     -0.13603     -0.12068     -0.10865     -0.22844
   
 Atom       C66          C67          C68          C69          C70     
 Charge    0.16988     -0.21480      0.00597     -0.19745      0.12947
   
 Atom       N71          S72          O73          O74          C75     
 Charge   -0.64744      0.64046     -0.48818     -0.44372      0.70706
   
 Atom       C76          C77          C78          C79          N80     
 Charge   -0.60356      0.29454     -0.52668      0.45887     -0.68688
   
 Atom       N81          C82          C83          C84          C85     
 Charge   -0.13527      0.09137     -0.18983     -0.25694      0.18113
   
 Atom       H86          H87          H88          H89          H90     
 Charge    0.12311      0.14957      0.14546      0.18603      0.14482
   
 Atom       H91          H92          H93          H94          H95     
 Charge    0.13064      0.22558      0.16372      0.15013      0.13936
   
 Atom       H96          H97          H98          H99          H100    
 Charge    0.10272      0.13904      0.12815      0.11904      0.12596
   
 Atom       H101         H102         H103         H104         H105    
 Charge    0.11050      0.15867      0.09327      0.06962      0.14475
   
 Atom       H106         H107         H108         H109         H110    
 Charge    0.12569      0.05810      0.14400      0.14067      0.13118
   
 Atom       H111         H112         H113         H114         H115    
 Charge    0.14161      0.12778      0.14261      0.12541      0.12236
   
 Atom       H116         H117         H118         H119         H120    
 Charge    0.12853      0.17561      0.11464      0.12560      0.14695
   
 Atom       H121         H122         H123         H124         H125    
 Charge    0.13666      0.12813      0.13659      0.12987      0.11405
   
 Atom       H126         H127         H128         H129         H130    
 Charge    0.14362      0.13096      0.09879      0.09640      0.14882
   
 Atom       H131         H132         H133         H134         H135    
 Charge    0.11526      0.26285      0.09517      0.21401      0.05727
   
 Atom       H136         H137         H138         H139         H140    
 Charge    0.31649      0.17583      0.20217      0.22589      0.17063
   
 Atom       S141         O142         C143         O144         F145    
 Charge    0.76532     -0.51288      0.43551     -0.48188     -0.11996
   
 Atom       F146         F147         H148    
 Charge   -0.14780     -0.15392      0.38877
  
  sum of atomic charges:     0.000000
   
 RMS Error   1.06E-03 hartrees
 
  Peak memory usage:    816 Mb
  
  end of program ch
   
 Time(ch)  user:       16.4  user+sys:       16.4  wallclock:       18.4
  
  start of program post
  
  Writing input files for PBF
  Peak memory usage:    759 Mb
  
  end of program post
   
 Time(post)  user:        0.6  user+sys:        0.6  wallclock:        1.0

  start of program pbf

Pbf Version 4.10

Molecular surface area:      841.24263   [A2]
Reaction field energy:       -24.08308   [kT]
  Peak memory usage: 722 Mb

  end of program pbf

 Time(pbf)  user:        5.5  user+sys:        5.7  wallclock:        5.7
  
  start of program solv
  
   number of surface charges from PBF   13480
   sum of surface charges     -0.00021
   
  nuclear repulsion energy.......   20736.476334673 hartrees
  Peak memory usage:    894 Mb
  
  end of program solv
   
 Time(solv)  user:       32.8  user+sys:       32.8  wallclock:       33.4
  
  start of program scf
  
 Energy computed with NOPS off.
  
       i  u  d  i  g                   
       t  p  i  c  r                                 RMS    maximum
       e  d  i  u  i                       energy  density   DIIS  
       r  t  s  t  d       total energy    change  change    error 
  
etot    1  N  N  1  U   -5575.61354822880           7.6E-06  2.1E-04
etot    2  N  N  1  U   -5575.61355401932  5.8E-06  0.0E+00  0.0E+00
  
  
 Energy components, in hartrees:
   (A)  Total zero-electron terms....   20739.60396725454
   (B)    Nuclear-nuclear............   20736.47633467267
   (C)    Nuclear-solvent............       3.12763258187
   (E)  Total one-electron terms.....  -49004.93503216107
   (F)    Electron-nuclear...........  -54537.90605999137
   (G)    Electron-solvent...........      -3.17699318489
   (H)    Kinetic....................    5536.14802101519
   (I)  Total two-electron terms.....   22689.71751088721
   (J)    Coulomb....................   23341.03475116507
   (K)    Exchange+Correlation.......    -651.31724027786
   (L)  Electronic energy............  -26315.21752127386  (E+I)
   (N)  Total quantum mech. energy...   -5575.61355401932  (A+L)
   (O)  Gas phase energy.............   -5575.56606465910
   (P)  Solution phase energy........   -5575.58887371781  (Q+R+S)
   (Q)    Total solute energy........   -5575.56419341630  (N-C-G)
   (R)    Total solvent energy.......      -0.02468030151  (C/2+G/2)
   (S)    Solute cavity energy.......       0.00000000000
   (U)  Reorganization energy........       0.00187124281  (Q-O)
   (V)  Solvation energy.............      -0.02280905870  (P-O)
  
 SCFE:  Solution phase energy: DFT(m06-2x)      -5575.58887371781 hartrees
        SCF iterations:   2
  
 
 HOMO energy:    -0.27514
 LUMO energy:    -0.06771
 
  Orbital energies (hartrees): 
   -69.97152   -54.00574   -47.87762   -45.66166   -43.67364   -32.91565
   -27.84423   -27.63400   -27.01851   -26.40075   -25.70049   -24.99163
   -22.10538   -20.71155   -19.46356   -19.21208   -19.20857   -17.67978
   -16.81111   -15.75777   -15.50423   -14.46553   -14.41486   -14.39364
   -13.77840   -13.65648   -13.46191   -13.43389   -12.61626   -12.52243
   -12.39480   -12.16821   -11.73777   -11.55712   -11.39802   -11.39204
   -11.31013   -11.22897   -11.12422   -10.98254   -10.87556   -10.85185
   -10.81402   -10.80200   -10.73471   -10.72936   -10.71522   -10.68133
   -10.65606   -10.63762   -10.63654   -10.63613   -10.61429   -10.59013
   -10.58424   -10.57939   -10.57226   -10.55416   -10.54418   -10.53027
   -10.51111   -10.51076   -10.50133   -10.50110   -10.49633   -10.49106
   -10.48736   -10.47789   -10.47771   -10.47513   -10.43053   -10.42411
   -10.39523   -10.39331   -10.38916   -10.33856   -10.33777   -10.33195
   -10.30921   -10.30827   -10.29724   -10.28296   -10.26912   -10.26613
   -10.26178   -10.25643   -10.20267   -10.15017   -10.14193   -10.13147
   -10.11973    -9.97784    -9.90280    -9.82780    -9.81636    -9.80489
    -9.36922    -9.06368    -8.93234    -8.71764    -7.07424    -6.98497
    -6.60464    -6.56854    -6.49157    -6.41052    -5.78730    -5.10615
    -4.80974    -4.61421    -4.42370    -4.04219    -1.46299    -1.37031
    -1.35274    -1.22856    -1.22500    -1.21009    -1.11136    -1.09096
    -1.03791    -0.95335    -0.93897    -0.93244    -0.92790    -0.89539
    -0.89337    -0.89330    -0.89273    -0.88563    -0.88365    -0.87921
    -0.87653    -0.87273    -0.84578    -0.84012    -0.83945    -0.83880
    -0.83846    -0.83449    -0.82941    -0.81531    -0.81375    -0.80759
    -0.80138    -0.79969    -0.79775    -0.79729    -0.79529    -0.79358
    -0.78455    -0.78439    -0.78304    -0.78171    -0.77985    -0.77499
    -0.76324    -0.76027    -0.75827    -0.75174    -0.74989    -0.74481
    -0.74342    -0.74037    -0.73731    -0.73446    -0.72930    -0.72481
    -0.72350    -0.72119    -0.71876    -0.70848    -0.70728    -0.70513
    -0.70162    -0.69722    -0.68781    -0.68182    -0.68085    -0.67861
    -0.67581    -0.67345    -0.66915    -0.66240    -0.66220    -0.66212
    -0.66022    -0.65786    -0.65407    -0.64836    -0.64692    -0.64629
    -0.63457    -0.63346    -0.63239    -0.63096    -0.62957    -0.62363
    -0.62183    -0.62181    -0.61900    -0.61858    -0.61805    -0.61803
    -0.61196    -0.61193    -0.61173    -0.60092    -0.59962    -0.59583
    -0.59488    -0.59343    -0.59129    -0.58534    -0.58452    -0.58187
    -0.57989    -0.57943    -0.57329    -0.57141    -0.57139    -0.56682
    -0.56681    -0.56362    -0.56175    -0.56119    -0.55742    -0.55679
    -0.55518    -0.55438    -0.54370    -0.54220    -0.53938    -0.53522
    -0.53234    -0.52754    -0.52439    -0.52223    -0.52077    -0.51587
    -0.51164    -0.51113    -0.50845    -0.50720    -0.50551    -0.50472
    -0.50388    -0.50153    -0.50090    -0.50064    -0.50023    -0.49997
    -0.49861    -0.49588    -0.49567    -0.49403    -0.49369    -0.49349
    -0.49089    -0.48932    -0.48921    -0.48893    -0.48754    -0.48556
    -0.48469    -0.48351    -0.48268    -0.48226    -0.48135    -0.47572
    -0.47519    -0.47266    -0.47256    -0.47087    -0.47019    -0.46873
    -0.46768    -0.46759    -0.46701    -0.46495    -0.46363    -0.46126
    -0.46107    -0.46043    -0.46016    -0.45653    -0.45496    -0.45005
    -0.44940    -0.44719    -0.44706    -0.44425    -0.44331    -0.44227
    -0.44151    -0.44104    -0.44093    -0.44048    -0.43921    -0.43806
    -0.43621    -0.43612    -0.43602    -0.43510    -0.43452    -0.43319
    -0.43237    -0.43211    -0.43208    -0.42413    -0.42016    -0.42008
    -0.41395    -0.40469    -0.39620    -0.39157    -0.39089    -0.38559
    -0.37951    -0.37614    -0.37469    -0.35503    -0.34552    -0.34512
    -0.33807    -0.32120    -0.32052    -0.32044    -0.31880    -0.31458
    -0.31217    -0.31037    -0.30990    -0.30721    -0.30592    -0.30579
    -0.30412    -0.30386    -0.29766    -0.27514    -0.06771    -0.02159
    -0.01429    -0.00155     0.00628     0.00819     0.01395     0.01639
     0.01905     0.01959
 
  Peak memory usage:   1029 Mb
  
  end of program scf
   
 Time(scf)  user:     2326.3  user+sys:     2326.3  wallclock:     2350.2
  
  start of program sole
  
    SCRF                   solvation energy
  iteration          Hartrees            kcal/mol
     0               0.0000000            0.0000
     1              -0.0212806          -13.3538
     2              -0.0228091          -14.3129
  
  solvation energy not yet converged... 
  
  Peak memory usage:    813 Mb
  
  end of program sole
   
 Time(sole)  user:        0.1  user+sys:        0.1  wallclock:        0.3
  
  start of program ch
  
  gridpoints used for charge fit        16686
    out of a possible maximum of        16686
  
   Electrostatic potential fitting constrained to reproduce
     total charge:                yes
     dipole moment:               no 
     traceless quadrupole moment: no 
     traceless octapole moment:   no 
  
  Atomic charges from electrostatic potential: 
   
 Atom       C1           C2           C3           C4           C5      
 Charge   -0.14988      0.00049     -0.15872      0.18159      0.16814
   
 Atom       C6           C7           C8           C9           C10     
 Charge   -0.20819     -0.40340     -0.13319     -0.27072     -0.23462
   
 Atom       C11          O12          Si13         C14          C15     
 Charge    0.28759     -0.01620     -0.15924      0.17535      0.16513
   
 Atom       C16          C17          C18          C19          C20     
 Charge    0.25585     -0.18729     -0.46604     -0.27041      0.03162
   
 Atom       Si21         O22          C23          C24          P25     
 Charge    0.09165     -0.17792     -0.15159     -0.11598      0.75912
   
 Atom       O26          N27          C28          C29          C30     
 Charge   -0.57145     -0.61059      0.08937      0.12066      0.14699
   
 Atom       C31          C32          C33          C34          C35     
 Charge    0.08278     -0.04937      0.03236     -0.10837     -0.20820
   
 Atom       C36          C37          C38          C39          C40     
 Charge   -0.15897     -0.15961     -0.16516     -0.13418     -0.16751
   
 Atom       C41          C42          C43          C44          C45     
 Charge   -0.07360     -0.04251     -0.16530     -0.15553     -0.12673
   
 Atom       C46          C47          C48          C49          C50     
 Charge   -0.16275     -0.14779     -0.10281     -0.16211     -0.12452
   
 Atom       C51          C52          C53          C54          C55     
 Charge   -0.15044     -0.14332     -0.13163     -0.15275     -0.17386
   
 Atom       C56          C57          C58          C59          C60     
 Charge   -0.09549     -0.17362     -0.17605     -0.12781     -0.11647
   
 Atom       C61          C62          C63          C64          C65     
 Charge   -0.12856     -0.13645     -0.12021     -0.10681     -0.22726
   
 Atom       C66          C67          C68          C69          C70     
 Charge    0.16371     -0.21305      0.00454     -0.19647      0.12962
   
 Atom       N71          S72          O73          O74          C75     
 Charge   -0.64699      0.63756     -0.48619     -0.44598      0.70377
   
 Atom       C76          C77          C78          C79          N80     
 Charge   -0.60384      0.29735     -0.52414      0.46119     -0.69293
   
 Atom       N81          C82          C83          C84          C85     
 Charge   -0.13557      0.09518     -0.18906     -0.25558      0.18150
   
 Atom       H86          H87          H88          H89          H90     
 Charge    0.12339      0.15008      0.14595      0.18656      0.14542
   
 Atom       H91          H92          H93          H94          H95     
 Charge    0.13039      0.22587      0.16414      0.15063      0.13985
   
 Atom       H96          H97          H98          H99          H100    
 Charge    0.10264      0.13928      0.13005      0.11928      0.12636
   
 Atom       H101         H102         H103         H104         H105    
 Charge    0.11063      0.15756      0.09353      0.06925      0.14498
   
 Atom       H106         H107         H108         H109         H110    
 Charge    0.12575      0.05718      0.14459      0.14123      0.13184
   
 Atom       H111         H112         H113         H114         H115    
 Charge    0.14197      0.12805      0.14322      0.12575      0.12287
   
 Atom       H116         H117         H118         H119         H120    
 Charge    0.12946      0.17519      0.11485      0.12697      0.14753
   
 Atom       H121         H122         H123         H124         H125    
 Charge    0.13721      0.12879      0.13715      0.13048      0.11450
   
 Atom       H126         H127         H128         H129         H130    
 Charge    0.14411      0.13149      0.09615      0.09640      0.14926
   
 Atom       H131         H132         H133         H134         H135    
 Charge    0.11541      0.26224      0.09557      0.21534      0.05807
   
 Atom       H136         H137         H138         H139         H140    
 Charge    0.31508      0.17526      0.20324      0.22624      0.16904
   
 Atom       S141         O142         C143         O144         F145    
 Charge    0.76483     -0.51233      0.43624     -0.48251     -0.11966
   
 Atom       F146         F147         H148    
 Charge   -0.14852     -0.15379      0.39029
  
  sum of atomic charges:     0.000000
   
 RMS Error   1.06E-03 hartrees
 
  Peak memory usage:    816 Mb
  
  end of program ch
   
 Time(ch)  user:       16.7  user+sys:       16.7  wallclock:       21.0
  
  start of program post
  
  Writing input files for PBF
  Peak memory usage:    759 Mb
  
  end of program post
   
 Time(post)  user:        0.6  user+sys:        0.6  wallclock:        1.1

  start of program pbf

Pbf Version 4.10

Molecular surface area:      841.24263   [A2]
Reaction field energy:       -24.57989   [kT]
  Peak memory usage: 722 Mb

  end of program pbf

 Time(pbf)  user:        5.5  user+sys:        5.9  wallclock:        5.9
  
  start of program solv
  
   number of surface charges from PBF   13480
   sum of surface charges     -0.00022
   
  nuclear repulsion energy.......   20736.476334673 hartrees
  Peak memory usage:    894 Mb
  
  end of program solv
   
 Time(solv)  user:       32.6  user+sys:       32.6  wallclock:       33.1
  
  start of program scf
  
 Energy computed with NOPS off.
  
       i  u  d  i  g                   
       t  p  i  c  r                                 RMS    maximum
       e  d  i  u  i                       energy  density   DIIS  
       r  t  s  t  d       total energy    change  change    error 
  
etot    1  N  N  1  U   -5575.61404330795           5.6E-06  2.0E-04
etot    2  N  N  1  U   -5575.61402883421 -1.4E-05  0.0E+00  0.0E+00
  
  
 Energy components, in hartrees:
   (A)  Total zero-electron terms....   20739.66459511883
   (B)    Nuclear-nuclear............   20736.47633467267
   (C)    Nuclear-solvent............       3.18826044616
   (E)  Total one-electron terms.....  -49004.68622553039
   (F)    Electron-nuclear...........  -54537.57834117288
   (G)    Electron-solvent...........      -3.23792563479
   (H)    Kinetic....................    5536.13004127729
   (I)  Total two-electron terms.....   22689.40760157734
   (J)    Coulomb....................   23340.72291893177
   (K)    Exchange+Correlation.......    -651.31531735443
   (L)  Electronic energy............  -26315.27862395304  (E+I)
   (N)  Total quantum mech. energy...   -5575.61402883421  (A+L)
   (O)  Gas phase energy.............   -5575.56606465910
   (P)  Solution phase energy........   -5575.58919623990  (Q+R+S)
   (Q)    Total solute energy........   -5575.56436364558  (N-C-G)
   (R)    Total solvent energy.......      -0.02483259431  (C/2+G/2)
   (S)    Solute cavity energy.......       0.00000000000
   (U)  Reorganization energy........       0.00170101352  (Q-O)
   (V)  Solvation energy.............      -0.02313158079  (P-O)
  
 SCFE:  Solution phase energy: DFT(m06-2x)      -5575.58919623990 hartrees
        SCF iterations:   2
  
 
 HOMO energy:    -0.25411
 LUMO energy:    -0.06801
 
  Orbital energies (hartrees): 
   -90.16336   -90.15978   -78.21828   -67.01333   -67.00837   -25.28996
   -25.28738   -25.28671   -19.69770   -19.69225   -19.64660   -19.64120
   -19.63795   -19.63054   -19.61560   -14.85383   -14.79443   -14.78763
   -14.74297   -10.80567   -10.66113   -10.63461   -10.63254   -10.62823
   -10.62808   -10.62618   -10.61356   -10.60024   -10.59837   -10.57978
   -10.57644   -10.57515   -10.57341   -10.57274   -10.57191   -10.57065
   -10.56891   -10.56353   -10.56294   -10.56249   -10.56107   -10.56015
   -10.55912   -10.55838   -10.55818   -10.55804   -10.55441   -10.55403
   -10.55378   -10.55332   -10.55316   -10.55294   -10.55291   -10.55262
   -10.55253   -10.55238   -10.55238   -10.55227   -10.55182   -10.55145
   -10.55143   -10.55139   -10.55137   -10.55062   -10.55044   -10.55028
   -10.55002   -10.54974   -10.54955   -10.54941   -10.54881   -10.54874
   -10.54753   -10.54731   -10.54670   -10.54608   -10.54432   -10.54415
   -10.54375   -10.54335   -10.54258   -10.54237   -10.54222   -10.54177
   -10.54175   -10.54103   -10.53804   -10.53704   -10.53633   -10.53292
   -10.53162   -10.52881    -8.47437    -8.46785    -6.99759    -6.39622
    -6.39570    -6.39496    -6.38993    -6.38939    -6.38920    -5.54432
    -5.54002    -5.11617    -5.11476    -5.11373    -3.85410    -3.85377
    -3.85368    -3.84982    -3.84950    -3.84921    -1.45509    -1.36440
    -1.36280    -1.23716    -1.23525    -1.22297    -1.19049    -1.14241
    -1.12239    -1.10992    -1.09887    -1.07783    -1.04616    -0.99413
    -0.98306    -0.96830    -0.96624    -0.94857    -0.94635    -0.94524
    -0.94173    -0.94003    -0.93639    -0.93214    -0.92303    -0.91681
    -0.91213    -0.90336    -0.89151    -0.88146    -0.85749    -0.85425
    -0.84777    -0.84758    -0.84430    -0.84055    -0.83827    -0.83808
    -0.83748    -0.83400    -0.83207    -0.83093    -0.83016    -0.82996
    -0.82710    -0.82680    -0.82583    -0.82556    -0.82154    -0.80242
    -0.79634    -0.76699    -0.75448    -0.73206    -0.73001    -0.71938
    -0.71066    -0.70916    -0.70705    -0.70010    -0.69374    -0.69268
    -0.68734    -0.68480    -0.68455    -0.68434    -0.67925    -0.67858
    -0.67837    -0.67772    -0.67678    -0.67461    -0.67195    -0.67012
    -0.66780    -0.66689    -0.66303    -0.66206    -0.66039    -0.65859
    -0.65269    -0.64226    -0.63818    -0.62802    -0.61112    -0.60655
    -0.60350    -0.60197    -0.59248    -0.59178    -0.58479    -0.58401
    -0.58263    -0.58108    -0.57933    -0.57627    -0.57483    -0.57006
    -0.56318    -0.56244    -0.56178    -0.56060    -0.55691    -0.55356
    -0.54889    -0.54454    -0.54318    -0.53956    -0.53718    -0.53234
    -0.53165    -0.53038    -0.52959    -0.52700    -0.52415    -0.52206
    -0.52051    -0.51891    -0.51809    -0.51681    -0.51583    -0.51348
    -0.51185    -0.50901    -0.50704    -0.50494    -0.50292    -0.50169
    -0.50096    -0.49992    -0.49937    -0.49829    -0.49803    -0.49644
    -0.49477    -0.49405    -0.49302    -0.49232    -0.49147    -0.49029
    -0.48703    -0.48612    -0.48475    -0.48415    -0.48301    -0.48157
    -0.47954    -0.47854    -0.47474    -0.47268    -0.47077    -0.46682
    -0.45649    -0.45540    -0.45370    -0.45183    -0.45089    -0.44774
    -0.44730    -0.44603    -0.44095    -0.43660    -0.43425    -0.43285
    -0.42917    -0.42733    -0.42576    -0.42528    -0.42144    -0.42091
    -0.42027    -0.41709    -0.41351    -0.41195    -0.40706    -0.40552
    -0.40388    -0.40277    -0.39962    -0.39772    -0.39583    -0.39465
    -0.39329    -0.39274    -0.39088    -0.38930    -0.38796    -0.38689
    -0.38574    -0.38343    -0.38261    -0.38072    -0.37657    -0.37478
    -0.36671    -0.36463    -0.35936    -0.35637    -0.35485    -0.34850
    -0.34625    -0.34284    -0.34155    -0.34082    -0.33936    -0.33716
    -0.33461    -0.33130    -0.32748    -0.32609    -0.31082    -0.30835
    -0.30750    -0.30670    -0.30443    -0.30365    -0.30308    -0.29858
    -0.29617    -0.29543    -0.29476    -0.29393    -0.29109    -0.28884
    -0.28719    -0.28486    -0.27497    -0.25411    -0.06801    -0.02197
    -0.01535    -0.00175     0.00573     0.00775     0.01360     0.01597
     0.01856     0.01922
 
  Peak memory usage:   1029 Mb
  
  end of program scf
   
 Time(scf)  user:     2318.3  user+sys:     2318.3  wallclock:     2342.0
  
  start of program sole
  
    SCRF                   solvation energy
  iteration          Hartrees            kcal/mol
     0               0.0000000            0.0000
     1              -0.0212806          -13.3538
     2              -0.0228091          -14.3129
[...]
       e  d  i  u  i                       energy  density   DIIS  
       r  t  s  t  d       total energy    change  change    error 
  
etot    1  N  N  1  U   -5575.61408272363           1.3E-05  4.7E-04
etot    2  N  Y  1  U   -5575.61397317250 -1.1E-04  8.3E-06  8.0E-04
etot    3  N  Y  1  U   -5575.61414520646  1.7E-04  3.5E-07  1.3E-05
etot    4  N  N  1  U   -5575.61414545392  2.5E-07  0.0E+00  0.0E+00
  
  
 Energy components, in hartrees:
   (A)  Total zero-electron terms....   20739.68155366745
   (B)    Nuclear-nuclear............   20736.47633467267
   (C)    Nuclear-solvent............       3.20521899478
   (E)  Total one-electron terms.....  -49004.90563501071
   (F)    Electron-nuclear...........  -54537.78840053923
   (G)    Electron-solvent...........      -3.25512408283
   (H)    Kinetic....................    5536.13788961135
   (I)  Total two-electron terms.....   22689.60993588934
   (J)    Coulomb....................   23340.92616262261
   (K)    Exchange+Correlation.......    -651.31622673327
   (L)  Electronic energy............  -26315.29569912137  (E+I)
   (N)  Total quantum mech. energy...   -5575.61414545392  (A+L)
   (O)  Gas phase energy.............   -5575.56606465910
   (P)  Solution phase energy........   -5575.58919290989  (Q+R+S)
   (Q)    Total solute energy........   -5575.56424036587  (N-C-G)
   (R)    Total solvent energy.......      -0.02495254402  (C/2+G/2)
   (S)    Solute cavity energy.......       0.00000000000
   (U)  Reorganization energy........       0.00182429323  (Q-O)
   (V)  Solvation energy.............      -0.02312825079  (P-O)
  
 SCFE:  Solution phase energy: DFT(m06-2x)      -5575.58919290989 hartrees
        SCF iterations:   4
  
 
 HOMO energy:    -0.25393
 LUMO energy:    -0.06782
 
  Orbital energies (hartrees): 
   -90.16192   -90.15940   -78.21774   -67.01269   -67.00760   -25.29017
   -25.28728   -25.28659   -19.69749   -19.69143   -19.64536   -19.64357
   -19.63740   -19.62982   -19.61536   -14.85157   -14.79252   -14.78432
   -14.74218   -10.80564   -10.66206   -10.63315   -10.63146   -10.62751
   -10.62563   -10.62555   -10.61354   -10.60036   -10.59952   -10.58112
   -10.57626   -10.57442   -10.57352   -10.57350   -10.57200   -10.57079
   -10.56894   -10.56359   -10.56269   -10.56267   -10.56021   -10.56007
   -10.55941   -10.55884   -10.55802   -10.55734   -10.55445   -10.55414
   -10.55410   -10.55323   -10.55302   -10.55278   -10.55270   -10.55270
   -10.55262   -10.55253   -10.55238   -10.55212   -10.55204   -10.55166
   -10.55162   -10.55161   -10.55128   -10.55087   -10.55078   -10.55027
   -10.54996   -10.54985   -10.54943   -10.54943   -10.54943   -10.54877
   -10.54810   -10.54751   -10.54621   -10.54556   -10.54418   -10.54401
   -10.54289   -10.54280   -10.54258   -10.54251   -10.54241   -10.54088
   -10.54065   -10.54044   -10.53731   -10.53643   -10.53566   -10.53249
   -10.53041   -10.52807    -8.47303    -8.46746    -6.99706    -6.39486
    -6.39434    -6.39360    -6.38954    -6.38900    -6.38881    -5.54369
    -5.53926    -5.11564    -5.11423    -5.11320    -3.85347    -3.85314
    -3.85305    -3.84907    -3.84874    -3.84845    -1.45504    -1.36441
    -1.36268    -1.23659    -1.23477    -1.22250    -1.18996    -1.14173
    -1.12217    -1.10942    -1.09844    -1.07646    -1.04493    -0.99360
    -0.98292    -0.96820    -0.96587    -0.94846    -0.94623    -0.94516
    -0.94158    -0.93985    -0.93616    -0.93199    -0.92298    -0.91695
    -0.91198    -0.90284    -0.89128    -0.88099    -0.85716    -0.85420
    -0.84758    -0.84733    -0.84410    -0.84051    -0.83808    -0.83799
    -0.83740    -0.83387    -0.83190    -0.83078    -0.82998    -0.82982
    -0.82698    -0.82662    -0.82562    -0.82538    -0.82123    -0.80224
    -0.79585    -0.76665    -0.75397    -0.73180    -0.72966    -0.71902
    -0.71040    -0.70874    -0.70688    -0.69986    -0.69348    -0.69249
    -0.68702    -0.68469    -0.68443    -0.68400    -0.67919    -0.67849
    -0.67826    -0.67759    -0.67669    -0.67446    -0.67181    -0.66999
    -0.66760    -0.66676    -0.66285    -0.66176    -0.66013    -0.65831
    -0.65250    -0.64192    -0.63757    -0.62774    -0.61090    -0.60628
    -0.60327    -0.60180    -0.59200    -0.59139    -0.58470    -0.58374
    -0.58239    -0.58090    -0.57920    -0.57615    -0.57466    -0.56965
    -0.56303    -0.56237    -0.56162    -0.56050    -0.55683    -0.55323
    -0.54873    -0.54422    -0.54291    -0.53937    -0.53685    -0.53199
    -0.53139    -0.53010    -0.52934    -0.52666    -0.52398    -0.52184
    -0.52044    -0.51882    -0.51799    -0.51666    -0.51567    -0.51328
    -0.51166    -0.50897    -0.50685    -0.50477    -0.50276    -0.50153
    -0.50070    -0.49974    -0.49922    -0.49813    -0.49787    -0.49636
    -0.49462    -0.49392    -0.49284    -0.49208    -0.49132    -0.48995
    -0.48699    -0.48571    -0.48470    -0.48406    -0.48294    -0.48148
    -0.47939    -0.47841    -0.47454    -0.47248    -0.47033    -0.46662
    -0.45634    -0.45525    -0.45374    -0.45167    -0.45076    -0.44751
    -0.44700    -0.44586    -0.44068    -0.43631    -0.43398    -0.43247
    -0.42906    -0.42720    -0.42565    -0.42508    -0.42124    -0.42064
    -0.42000    -0.41691    -0.41329    -0.41158    -0.40691    -0.40522
    -0.40361    -0.40253    -0.39935    -0.39766    -0.39577    -0.39439
    -0.39319    -0.39263    -0.39065    -0.38908    -0.38755    -0.38627
    -0.38546    -0.38320    -0.38240    -0.38051    -0.37614    -0.37456
    -0.36656    -0.36422    -0.35902    -0.35620    -0.35456    -0.34821
    -0.34598    -0.34245    -0.34117    -0.34005    -0.33863    -0.33660
    -0.33417    -0.33101    -0.32714    -0.32558    -0.31060    -0.30816
    -0.30730    -0.30642    -0.30430    -0.30355    -0.30299    -0.29842
    -0.29597    -0.29517    -0.29459    -0.29368    -0.29092    -0.28858
    -0.28692    -0.28461    -0.27488    -0.25393    -0.06782    -0.02177
    -0.01484    -0.00164     0.00595     0.00799     0.01379     0.01620
     0.01883     0.01942
 
  Peak memory usage:   1029 Mb
  
  end of program scf
   
 Time(scf)  user:     6916.0  user+sys:     6916.0  wallclock:     6985.8
  
  start of program sole
  
    SCRF                   solvation energy
  iteration          Hartrees            kcal/mol
     0               0.0000000            0.0000
     1              -0.0212806          -13.3538
     2              -0.0228091          -14.3129
     3              -0.0231316          -14.5153
     4              -0.0228663          -14.3488
     5              -0.0231283          -14.5132
  
  solvation energy not yet converged... 
  
  Peak memory usage:    813 Mb
  
  end of program sole
   
 Time(sole)  user:        0.1  user+sys:        0.1  wallclock:        0.1
  
  start of program ch
  
  gridpoints used for charge fit        16686
    out of a possible maximum of        16686
  
   Electrostatic potential fitting constrained to reproduce
     total charge:                yes
     dipole moment:               no 
     traceless quadrupole moment: no 
     traceless octapole moment:   no 
  
  Atomic charges from electrostatic potential: 
   
 Atom       C1           C2           C3           C4           C5      
 Charge   -0.14942      0.00021     -0.15908      0.18169      0.16790
   
 Atom       C6           C7           C8           C9           C10     
 Charge   -0.20814     -0.40367     -0.13355     -0.27021     -0.23489
   
 Atom       C11          O12          Si13         C14          C15     
 Charge    0.28787     -0.01625     -0.15859      0.17536      0.16503
   
 Atom       C16          C17          C18          C19          C20     
 Charge    0.25596     -0.18739     -0.46609     -0.27021      0.03252
   
 Atom       Si21         O22          C23          C24          P25     
 Charge    0.09128     -0.17817     -0.15191     -0.11651      0.75971
   
 Atom       O26          N27          C28          C29          C30     
 Charge   -0.57177     -0.61054      0.08959      0.12064      0.14770
   
 Atom       C31          C32          C33          C34          C35     
 Charge    0.08366     -0.04877      0.03266     -0.10830     -0.20794
   
 Atom       C36          C37          C38          C39          C40     
 Charge   -0.15852     -0.15955     -0.16478     -0.13422     -0.16754
   
 Atom       C41          C42          C43          C44          C45     
 Charge   -0.07422     -0.04251     -0.16519     -0.15529     -0.12654
   
 Atom       C46          C47          C48          C49          C50     
 Charge   -0.16278     -0.14823     -0.10315     -0.16180     -0.12485
   
 Atom       C51          C52          C53          C54          C55     
 Charge   -0.15102     -0.14360     -0.13228     -0.15275     -0.17315
   
 Atom       C56          C57          C58          C59          C60     
 Charge   -0.09588     -0.17392     -0.17604     -0.12826     -0.11683
   
 Atom       C61          C62          C63          C64          C65     
 Charge   -0.12874     -0.13662     -0.12068     -0.10815     -0.22733
   
 Atom       C66          C67          C68          C69          C70     
 Charge    0.16501     -0.21272      0.00492     -0.19703      0.12975
   
 Atom       N71          S72          O73          O74          C75     
 Charge   -0.64631      0.63871     -0.48763     -0.44665      0.70627
   
 Atom       C76          C77          C78          C79          N80     
 Charge   -0.60465      0.29686     -0.52625      0.46149     -0.69282
   
 Atom       N81          C82          C83          C84          C85     
 Charge   -0.13452      0.09375     -0.19018     -0.25599      0.18090
   
 Atom       H86          H87          H88          H89          H90     
 Charge    0.12315      0.15025      0.14597      0.18642      0.14560
   
 Atom       H91          H92          H93          H94          H95     
 Charge    0.13040      0.22589      0.16412      0.15080      0.14003
   
 Atom       H96          H97          H98          H99          H100    
 Charge    0.10252      0.13913      0.13002      0.11917      0.12617
   
 Atom       H101         H102         H103         H104         H105    
 Charge    0.11060      0.15768      0.09349      0.06913      0.14489
   
 Atom       H106         H107         H108         H109         H110    
 Charge    0.12566      0.05711      0.14464      0.14139      0.13194
   
 Atom       H111         H112         H113         H114         H115    
 Charge    0.14181      0.12799      0.14336      0.12572      0.12301
   
 Atom       H116         H117         H118         H119         H120    
 Charge    0.12927      0.17503      0.11478      0.12707      0.14758
   
 Atom       H121         H122         H123         H124         H125    
 Charge    0.13736      0.12890      0.13724      0.13055      0.11460
   
 Atom       H126         H127         H128         H129         H130    
 Charge    0.14449      0.13147      0.09631      0.09615      0.14946
   
 Atom       H131         H132         H133         H134         H135    
 Charge    0.11522      0.26236      0.09584      0.21598      0.05810
   
 Atom       H136         H137         H138         H139         H140    
 Charge    0.31548      0.17537      0.20378      0.22661      0.16997
   
 Atom       S141         O142         C143         O144         F145    
 Charge    0.76523     -0.51231      0.43566     -0.48259     -0.11964
   
 Atom       F146         F147         H148    
 Charge   -0.14830     -0.15394      0.38997
  
  sum of atomic charges:     0.000000
   
 RMS Error   1.06E-03 hartrees
 
  Peak memory usage:    816 Mb
  
  end of program ch
   
 Time(ch)  user:       17.0  user+sys:       17.0  wallclock:       19.1
  
  start of program post
  
  Writing input files for PBF
  Peak memory usage:    759 Mb
  
  end of program post
   
 Time(post)  user:        0.6  user+sys:        0.6  wallclock:        1.0

  start of program pbf

Pbf Version 4.10

Molecular surface area:      841.24263   [A2]
Reaction field energy:       -24.54944   [kT]
  Peak memory usage: 722 Mb

  end of program pbf

 Time(pbf)  user:        5.7  user+sys:        5.8  wallclock:        6.0
  
  start of program solv
  
   number of surface charges from PBF   13480
   sum of surface charges     -0.00022
   
  nuclear repulsion energy.......   20736.476334673 hartrees
  Peak memory usage:    894 Mb
  
  end of program solv
   
 Time(solv)  user:       32.5  user+sys:       32.5  wallclock:       33.1
  
  start of program scf
  
 Energy computed with NOPS off.
  
       i  u  d  i  g                   
       t  p  i  c  r                                 RMS    maximum
       e  d  i  u  i                       energy  density   DIIS  
       r  t  s  t  d       total energy    change  change    error 
  
etot    1  N  N  1  U   -5575.61402808621           8.2E-07  2.6E-05
etot    2  N  N  1  U   -5575.61402813268  4.6E-08  0.0E+00  0.0E+00
  
  
 Energy components, in hartrees:
   (A)  Total zero-electron terms....   20739.65734486110
   (B)    Nuclear-nuclear............   20736.47633467267
   (C)    Nuclear-solvent............       3.18101018843
   (E)  Total one-electron terms.....  -49004.85497828368
   (F)    Electron-nuclear...........  -54537.76168637098
   (G)    Electron-solvent...........      -3.23076131789
   (H)    Kinetic....................    5536.13746940520
   (I)  Total two-electron terms.....   22689.58360528990
   (J)    Coulomb....................   23340.89975052579
   (K)    Exchange+Correlation.......    -651.31614523590
   (L)  Electronic energy............  -26315.27137299378  (E+I)
   (N)  Total quantum mech. energy...   -5575.61402813268  (A+L)
   (O)  Gas phase energy.............   -5575.56606465910
   (P)  Solution phase energy........   -5575.58915256795  (Q+R+S)
   (Q)    Total solute energy........   -5575.56427700322  (N-C-G)
   (R)    Total solvent energy.......      -0.02487556473  (C/2+G/2)
   (S)    Solute cavity energy.......       0.00000000000
   (U)  Reorganization energy........       0.00178765589  (Q-O)
   (V)  Solvation energy.............      -0.02308790885  (P-O)
  
 SCFE:  Solution phase energy: DFT(m06-2x)      -5575.58915256795 hartrees
        SCF iterations:   2
  
 
 HOMO energy:    -0.25394
 LUMO energy:    -0.06782
 
  Orbital energies (hartrees): 
   -90.16200   -90.15940   -78.21773   -67.01271   -67.00760   -25.29013
   -25.28729   -25.28654   -19.69745   -19.69138   -19.64548   -19.64338
   -19.63730   -19.63000   -19.61534   -14.85168   -14.79260   -14.78467
   -14.74223   -10.80561   -10.66196   -10.63323   -10.63153   -10.62746
   -10.62577   -10.62563   -10.61359   -10.60034   -10.59942   -10.58094
   -10.57624   -10.57420   -10.57364   -10.57355   -10.57202   -10.57083
   -10.56897   -10.56361   -10.56275   -10.56266   -10.56030   -10.56008
   -10.55932   -10.55892   -10.55801   -10.55732   -10.55448   -10.55410
   -10.55408   -10.55327   -10.55304   -10.55275   -10.55273   -10.55268
   -10.55260   -10.55249   -10.55242   -10.55214   -10.55200   -10.55163
   -10.55160   -10.55158   -10.55127   -10.55079   -10.55076   -10.55029
   -10.54991   -10.54982   -10.54948   -10.54942   -10.54936   -10.54876
   -10.54805   -10.54749   -10.54621   -10.54567   -10.54415   -10.54399
   -10.54286   -10.54282   -10.54254   -10.54246   -10.54237   -10.54098
   -10.54071   -10.54046   -10.53736   -10.53643   -10.53567   -10.53248
   -10.53042   -10.52806    -8.47310    -8.46747    -6.99705    -6.39493
    -6.39441    -6.39367    -6.38955    -6.38900    -6.38881    -5.54372
    -5.53926    -5.11563    -5.11422    -5.11319    -3.85350    -3.85317
    -3.85308    -3.84907    -3.84874    -3.84845    -1.45502    -1.36438
    -1.36266    -1.23660    -1.23475    -1.22251    -1.18993    -1.14175
    -1.12216    -1.10943    -1.09843    -1.07657    -1.04498    -0.99362
    -0.98294    -0.96822    -0.96589    -0.94846    -0.94622    -0.94515
    -0.94158    -0.93984    -0.93615    -0.93200    -0.92298    -0.91690
    -0.91199    -0.90286    -0.89130    -0.88101    -0.85717    -0.85421
    -0.84758    -0.84734    -0.84410    -0.84050    -0.83808    -0.83799
    -0.83739    -0.83387    -0.83189    -0.83078    -0.82996    -0.82982
    -0.82698    -0.82662    -0.82562    -0.82537    -0.82122    -0.80225
    -0.79587    -0.76665    -0.75399    -0.73180    -0.72967    -0.71903
    -0.71041    -0.70876    -0.70688    -0.69987    -0.69349    -0.69250
    -0.68703    -0.68469    -0.68443    -0.68401    -0.67918    -0.67847
    -0.67825    -0.67758    -0.67669    -0.67447    -0.67180    -0.66999
    -0.66758    -0.66676    -0.66284    -0.66176    -0.66013    -0.65831
    -0.65251    -0.64193    -0.63759    -0.62774    -0.61090    -0.60628
    -0.60327    -0.60180    -0.59201    -0.59140    -0.58470    -0.58375
    -0.58240    -0.58090    -0.57920    -0.57614    -0.57466    -0.56966
    -0.56303    -0.56236    -0.56161    -0.56049    -0.55681    -0.55323
    -0.54873    -0.54423    -0.54290    -0.53937    -0.53686    -0.53200
    -0.53140    -0.53011    -0.52934    -0.52667    -0.52397    -0.52184
    -0.52044    -0.51881    -0.51798    -0.51666    -0.51567    -0.51327
    -0.51166    -0.50897    -0.50686    -0.50477    -0.50275    -0.50153
    -0.50071    -0.49974    -0.49921    -0.49813    -0.49786    -0.49636
    -0.49461    -0.49392    -0.49284    -0.49209    -0.49133    -0.48996
    -0.48698    -0.48573    -0.48470    -0.48406    -0.48294    -0.48146
    -0.47939    -0.47840    -0.47452    -0.47248    -0.47035    -0.46663
    -0.45635    -0.45526    -0.45371    -0.45167    -0.45075    -0.44751
    -0.44700    -0.44587    -0.44068    -0.43632    -0.43398    -0.43247
    -0.42906    -0.42720    -0.42564    -0.42508    -0.42123    -0.42064
    -0.42000    -0.41691    -0.41328    -0.41160    -0.40691    -0.40522
    -0.40362    -0.40254    -0.39936    -0.39765    -0.39578    -0.39438
    -0.39318    -0.39263    -0.39065    -0.38907    -0.38756    -0.38630
    -0.38545    -0.38320    -0.38240    -0.38052    -0.37615    -0.37457
    -0.36656    -0.36424    -0.35904    -0.35619    -0.35457    -0.34821
    -0.34599    -0.34245    -0.34118    -0.34009    -0.33866    -0.33662
    -0.33418    -0.33102    -0.32715    -0.32559    -0.31060    -0.30816
    -0.30730    -0.30643    -0.30430    -0.30354    -0.30298    -0.29842
    -0.29596    -0.29518    -0.29458    -0.29367    -0.29091    -0.28858
    -0.28693    -0.28461    -0.27489    -0.25394    -0.06782    -0.02179
    -0.01485    -0.00164     0.00596     0.00798     0.01378     0.01620
     0.01882     0.01942
 
  Peak memory usage:   1029 Mb
  
  end of program scf
   
 Time(scf)  user:     2317.1  user+sys:     2317.1  wallclock:     2339.9
  
  start of program sole
  
    SCRF                   solvation energy
  iteration          Hartrees            kcal/mol
     0               0.0000000            0.0000
     1              -0.0212806          -13.3538
     2              -0.0228091          -14.3129
     3              -0.0231316          -14.5153
     4              -0.0228663          -14.3488
     5              -0.0231283          -14.5132
     6              -0.0230879          -14.4879
  
  stopping: solvation energy converged
  
  iterations:   6    sfinal:    -14.4879 kcal/mol
  
  Peak memory usage:    813 Mb
  
  end of program sole
   
 Time(sole)  user:        0.1  user+sys:        0.1  wallclock:        0.1
  
  start of program post
  
  Writing input files for PBF
  Peak memory usage:    759 Mb
  
  end of program post
   
 Time(post)  user:        0.6  user+sys:        0.6  wallclock:        0.9

 Total cpu seconds     user:   58531.357   user+sys:   58531.357
  
 Total elapsed time:    59216 seconds

Job Toru-SiPh3-NTf-Type-II-E-Sulfonyl-1-chkp-scan-207-unrestrained-IRC-min-disp-2-SPE completed on tethys at Tue Apr  4 05:43:25 2017
