[running at reduced cpu priority]
Job ModelCatalyst-10Sulfonyl-2-TS-fine-grid-uf-acc-sol_1_co started on tethys at Mon Jan 30 11:33:33 2017
jobid: tethys-0-588f248b 
Jaguar version 8.4, release  16
Molecular Point Group: C1      
Point Group used: C1
pre (input checking) done.
onee (1-electron integrals) done.
Job ModelCatalyst-10Sulfonyl-2-TS-fine-grid-uf-acc-sol_1_co completed on tethys at Mon Jan 30 11:33:44 2017
