Job Toru-SiPh3-Type-II-E-1-scan-unrestrained-SPE started on tethys at Thu Apr  6 12:09:52 2017
jobid: tethys-0-58e621fd

  +--------------------------------------------------------------------+
  |  Jaguar version 9.5, release  11                                   |
  |                                                                    |
  |  Copyright Schrodinger, Inc.                                       |
  |  All Rights Reserved.                                              |
  |                                                                    |
  |  The following have contributed to Jaguar (listed alphabetically): |
  |  Mike Beachy, Art Bochevarov, Dale Braden, Yixiang Cao,            |
  |  Chris Cortis, Rich Friesner, Bill Goddard, Hod Greeley,           |
  |  Tom Hughes, Leif Jacobson, Jean-Marc Langlois,                    |
  |  Daniel Mainz, Rob Murphy, Dean Philipp, Tom Pollard,              |
  |  Murco Ringnalda, Mark Watson, Haoyu Yu.                           |
  |                                                                    |
  |  Use of this program should be acknowledged in publications as:    |
  |                                                                    |
  |  Jaguar, version 9.5, Schrodinger, Inc., New York, NY, 2017.       |
  |                                                                    |
  |  A. D. Bochevarov, E. Harder, T. F. Hughes, J. R. Greenwood,       |
  |  D. A. Braden, D. M. Philipp, D. Rinaldo, M. D. Halls,             |
  |  J. Zhang, R. A. Friesner, "Jaguar: A High-Performance Quantum     |
  |  Chemistry Software Program with Strengths in Life and Materials   |
  |  Sciences", Int. J. Quantum Chem., 2013, 113(18), 2110-2142.       |
  +--------------------------------------------------------------------+
  
  start of program pre
  
  Job name: Toru-SiPh3-Type-II-E-1-scan-unrestrained-SPE
  Executables used: /usr/local/shared/schrodinger/current/jaguar-v9.5/bin/Linux-x86_64
  Temporary files : /scratch/ab2144/Toru-SiPh3-Type-II-E-1-scan-unrestrained-SPE
  Maestro file (input):  Toru-SiPh3-Type-II-E-1-scan-unrestrained-SPE.mae
  Maestro file (output): Toru-SiPh3-Type-II-E-1-scan-unrestrained-SPE.01.mae
  
  basis set:             6-31g**                         
  net molecular charge:    0
  multiplicity:            1
  
  keygrid settings 
    wispc.....   7.500E-01
    ldens.....   0
    denspc....   7.500E-01
  
   grid     daf set  nls  grid set  Q type
  ------    -------  ---  --------  ------
  coarse       1      1       1        1
  medium       2      2       2        1
  fine         3      2       3        0
  ultrafine    4      2       4        1
  charge       0      1      -1        1
  gradient     5      2       4        1
  density      0      1       0        0
  DFT-fine     0      1     -13        0
  DFT-med.     0      1     -13        0
  DFT-grad     0      1     -13        0
  DFT-der2     0      1       0        0
  DFT-cphf     0      1       0        0
  LMP2-enrg    4      2       4        1
  LMP2-grad    5      2       2        1
  DFT-cphf2    0      1       0        0
  PBF-dens     0      1       0        0
  plotting     0      1       0        0
  Rel-grad     0      1     -17        0
  
  idftgrdm  100
  ndftgrdm   50    0    0
  idftgrdf  111
  ndftgrdf   85    0    0
  idftgrdg  111
  ndftgrdg   80    3    0
  idftgrdu  433
  ndftgrdu  105    0    0
  idftgrdd  433
  ndftgrdd  105    0    0
  idftgrdc  433
  ndftgrdc   26    0    0
  idftgrdp  433
  ndftgrdp   18    0    0
  
  number of basis functions....         1571
  
 Input geometry:
                                   angstroms
  atom               x                 y                 z
  C1           -0.3979000000      5.0426000000      1.9311000000 
  C2           -1.3053000000      4.0288000000      1.3277000000 
  C3           -0.8609000000      5.9076000000      2.8409000000 
  C4           -2.5902000000      3.9679000000      1.7429000000 
  C5           -0.8139000000      3.0467000000      0.3157000000 
  C6           -3.0939000000      4.9342000000      2.7462000000 
  C7           -3.4945000000      2.9349000000      1.2018000000 
  C8           -2.2737000000      5.8557000000      3.2626000000 
  C9           -1.6104000000      2.0309000000     -0.0679000000 
  C10           0.5377000000      3.1658000000     -0.2859000000 
  C11          -3.0442000000      2.0161000000      0.3337000000 
  O12          -1.0939000000      1.0298000000     -0.8491000000 
  Si13         -4.2606000000      0.7773000000     -0.3525000000 
  C14           0.8958000000      4.2618000000     -0.9984000000 
  C15           1.5184000000      2.0483000000     -0.1025000000 
  C16           2.2974000000      4.4141000000     -1.4566000000 
  C17          -0.0584000000      5.3436000000     -1.3605000000 
  C18           3.2020000000      3.4698000000     -1.1821000000 
  C19           2.6765000000      5.6351000000     -2.1961000000 
  C20           2.8114000000      2.2389000000     -0.4593000000 
  Si21          4.1257000000      0.9369000000     -0.1779000000 
  O22           1.1554000000      0.9054000000      0.5774000000 
  C23           0.3552000000      6.4196000000     -2.0401000000 
  C24           1.7628000000      6.5737000000     -2.4630000000 
  P25          -0.1228000000      0.0105000000      0.0034000000 
  O26          -0.8251000000     -0.4892000000      1.2492000000 
  O27           0.3676000000     -1.0170000000     -0.9920000000 
  C28          -4.6109000000     -0.5146000000      0.9488000000 
  C29          -5.8239000000      1.7240000000     -0.7369000000 
  C30          -3.6287000000      0.0063000000     -1.9333000000 
  C31           4.2020000000      0.4635000000      1.6304000000 
  C32           3.7681000000     -0.4639000000     -1.3631000000 
  C33           5.8001000000      1.6415000000     -0.5694000000 
  C34          -4.0092000000     -0.4658000000      2.1505000000 
  C35          -5.6006000000     -1.5871000000      0.6783000000 
  C36          -5.7906000000      2.7673000000     -1.5845000000 
  C37          -7.1044000000      1.3816000000     -0.0662000000 
  C38          -3.1795000000      0.7841000000     -2.9348000000 
  C39          -3.6044000000     -1.4674000000     -2.1023000000 
  C40           3.4889000000      1.1382000000      2.5520000000 
  C41           5.1576000000     -0.5762000000      2.0880000000 
  C42           4.4453000000     -1.6229000000     -1.3029000000 
  C43           2.8249000000     -0.2427000000     -2.4900000000 
  C44           6.3136000000      2.6093000000      0.2086000000 
  C45           6.5760000000      1.1556000000     -1.7369000000 
  C46          -4.3374000000     -1.4627000000      3.1901000000 
  C47          -5.2290000000     -2.4276000000      2.9375000000 
  C48          -5.8886000000     -2.4948000000      1.6188000000 
  C49          -7.0198000000      3.5316000000     -1.8808000000 
  C50          -8.1733000000      3.2017000000     -1.2905000000 
  C51          -8.2156000000      2.0790000000     -0.3337000000 
  C52          -2.6707000000      0.1798000000     -4.1832000000 
  C53          -2.6578000000     -1.1492000000     -4.3279000000 
  C54          -3.1466000000     -2.0124000000     -3.2362000000 
  C55           3.5772000000      0.7756000000      3.9816000000 
  C56           4.3922000000     -0.2082000000      4.3747000000 
  C57           5.2330000000     -0.9055000000      3.3834000000 
  C58           4.1984000000     -2.6892000000     -2.2954000000 
  C59           3.3372000000     -2.4862000000     -3.2970000000 
  C60           2.6285000000     -1.1973000000     -3.4069000000 
  C61           7.6428000000      3.1797000000     -0.0927000000 
  C62           8.3402000000      2.7352000000     -1.1446000000 
  C63           7.7800000000      1.6752000000     -2.0071000000 
  C64          -0.2224000000     -6.0681000000     -3.8825000000 
  C65          -0.0939000000     -5.8297000000     -2.5156000000 
  C66           0.0825000000     -4.5218000000     -2.0359000000 
  C67           0.1029000000     -3.4492000000     -2.9422000000 
  C68          -0.0267000000     -3.6963000000     -4.3061000000 
  C69          -0.1871000000     -5.0006000000     -4.7807000000 
  C70           0.2656000000     -4.3516000000     -0.5733000000 
  N71           1.1308000000     -3.4315000000     -0.0722000000 
  S72           2.1030000000     -3.8023000000      1.3031000000 
  O73           2.0769000000     -5.2567000000      1.4178000000 
  O74           3.3306000000     -3.0421000000      1.0985000000 
  C75           1.2882000000     -3.0724000000      2.7575000000 
  C76           1.3145000000     -1.6893000000      2.9050000000 
  C77           0.6950000000     -1.1662000000      4.0392000000 
  C78           0.1260000000     -2.0429000000      4.9598000000 
  C79           0.1775000000     -3.4162000000      4.7027000000 
  N80           0.7386000000     -3.9330000000      3.6036000000 
  N81          -1.6903000000     -3.0171000000      1.1389000000 
  C82          -2.2708000000     -3.8274000000      2.0342000000 
  C83          -2.7235000000     -4.9955000000      1.3939000000 
  C84          -2.3968000000     -4.8612000000      0.0498000000 
  C85          -1.6851000000     -3.6358000000     -0.1049000000 
  H86           0.6465000000      5.0854000000      1.6522000000 
  H87          -0.1973000000      6.6430000000      3.2773000000 
  H88          -4.1277000000      4.8968000000      3.0666000000 
  H89          -4.5315000000      2.9313000000      1.5165000000 
  H90          -2.6419000000      6.5604000000      3.9969000000 
  H91          -1.1064000000      5.2729000000     -1.1007000000 
  H92           4.2218000000      3.5972000000     -1.5207000000 
  H93           3.6983000000      5.7792000000     -2.5267000000 
  H94          -0.3565000000      7.1940000000     -2.2963000000 
  H95           2.0544000000      7.4634000000     -3.0063000000 
  H96           1.0897000000     -2.4358000000     -0.4181000000 
  H97          -3.2865000000      0.3022000000      2.3873000000 
  H98          -6.1032000000     -1.6340000000     -0.2797000000 
  H99          -4.8676000000      3.0809000000     -2.0485000000 
  H100         -7.1545000000      0.5836000000      0.6590000000 
  H101         -3.1455000000      1.8591000000     -2.8342000000 
  H102         -3.9383000000     -2.1200000000     -1.3114000000 
  H103          2.8469000000      1.9618000000      2.2771000000 
  H104          5.8318000000     -1.0501000000      1.3928000000 
  H105          5.1953000000     -1.7952000000     -0.5511000000 
  H106          2.2971000000      0.6953000000     -2.5934000000 
  H107          5.7630000000      2.9851000000      1.0624000000 
  H108          6.1757000000      0.3881000000     -2.3849000000 
  H109         -3.8482000000     -1.4143000000      4.1544000000 
  H110         -5.4649000000     -3.1623000000      3.6963000000 
  H111         -6.6112000000     -3.2749000000      1.4179000000 
  H112         -6.9830000000      4.3612000000     -2.5750000000 
  H113         -9.0743000000      3.7619000000     -1.5047000000 
  H114         -9.1458000000      1.8292000000      0.1601000000 
  H115         -2.3065000000      0.8162000000     -4.9793000000 
  H116         -2.2863000000     -1.5937000000     -5.2419000000 
  H117         -3.1221000000     -3.0887000000     -3.3504000000 
  H118          2.9731000000      1.3032000000      4.7083000000 
  H119          4.4536000000     -0.4791000000      5.4206000000 
  H120          5.9334000000     -1.6627000000      3.7115000000 
  H121          4.7251000000     -3.6312000000     -2.2149000000 
  H122          3.1589000000     -3.2641000000     -4.0282000000 
  H123          1.9422000000     -1.0295000000     -4.2269000000 
  H124          8.0502000000      3.9578000000      0.5398000000 
  H125          9.3140000000      3.1521000000     -1.3670000000 
  H126          8.3445000000      1.3228000000     -2.8607000000 
  H127         -0.3443000000     -7.0846000000     -4.2438000000 
  H128         -0.1100000000     -6.6619000000     -1.8166000000 
  H129          0.2088000000     -2.4329000000     -2.5739000000 
  H130         -0.0006000000     -2.8638000000     -5.0022000000 
  H131         -0.2858000000     -5.1838000000     -5.8465000000 
  H132          0.2718000000     -5.2794000000     -0.0084000000 
  H133          1.7773000000     -1.0500000000      2.1664000000 
  H134          0.6527000000     -0.0926000000      4.1837000000 
  H135         -0.3567000000     -1.6760000000      5.8598000000 
  H136         -0.2528000000     -4.1303000000      5.4014000000 
  H137         -1.3496000000     -2.0237000000      1.2758000000 
  H138         -2.3184000000     -3.5613000000      3.0803000000 
  H139         -3.2040000000     -5.8337000000      1.8771000000 
  H140         -2.5820000000     -5.5697000000     -0.7455000000 
  H141         -1.6377000000     -2.9981000000     -0.9716000000 
   
  principal moments of inertia:
        amu*angstrom^2:    17714.35714    21994.15447    27741.09679
                g*cm^2: 2.94153784E-36 3.65221482E-36 4.60651692E-36
   
  rotational constants:
               cm^(-1):      0.00095164      0.00076646      0.00060768
                   GHz:      0.02852935      0.02297788      0.01821770
   
  Molecular weight:    1177.32 amu
   
  Stoichiometry: Si2C72PN3H56SO6
[running at reduced cpu priority]
  Molecular Point Group: C1      
  Point Group used: C1
  
  nuclear repulsion energy.......   17441.277895762 hartrees
 
 Non-default options chosen:
   SCF calculation type: DFT(m06-2x)                 
   DFT=M06-2X
   Solvation energy will be computed using PBF
     -solute cavity energy will not be included
     -surface area terms will not be included
   Highest accuracy cutoffs used in SCF
   Solvent: other                                                           
   Internal dielectric constant:    1.000
   Continuum dielectric constant:   2.380
   Solvent probe molecule radius:   2.760
  
 Temporary integer options set:
     73=  2
  
  atom       vdw   vdw2    cov     mass  grid  daf  charge   basis
  C1        1.949  1.900  0.770   12.000    Y    Y      Y    6-31g**
  C2        1.949  1.900  0.770   12.000    Y    Y      Y    6-31g**
  C3        1.949  1.900  0.770   12.000    Y    Y      Y    6-31g**
  C4        1.949  1.900  0.770   12.000    Y    Y      Y    6-31g**
  C5        1.949  1.900  0.770   12.000    Y    Y      Y    6-31g**
  C6        1.949  1.900  0.770   12.000    Y    Y      Y    6-31g**
  C7        1.949  1.900  0.770   12.000    Y    Y      Y    6-31g**
  C8        1.949  1.900  0.770   12.000    Y    Y      Y    6-31g**
  C9        1.949  1.900  0.770   12.000    Y    Y      Y    6-31g**
  C10       1.949  1.900  0.770   12.000    Y    Y      Y    6-31g**
  C11       1.949  1.900  0.770   12.000    Y    Y      Y    6-31g**
  O12       1.702  1.600  0.730   15.995    Y    Y      Y    6-31g**
  Si13      2.217  2.147  1.110   27.977    Y    Y      Y    6-31g**
  C14       1.949  1.900  0.770   12.000    Y    Y      Y    6-31g**
  C15       1.949  1.900  0.770   12.000    Y    Y      Y    6-31g**
  C16       1.949  1.900  0.770   12.000    Y    Y      Y    6-31g**
  C17       1.949  1.900  0.770   12.000    Y    Y      Y    6-31g**
  C18       1.949  1.900  0.770   12.000    Y    Y      Y    6-31g**
  C19       1.949  1.900  0.770   12.000    Y    Y      Y    6-31g**
  C20       1.949  1.900  0.770   12.000    Y    Y      Y    6-31g**
  Si21      2.217  2.147  1.110   27.977    Y    Y      Y    6-31g**
  O22       1.702  1.600  0.730   15.995    Y    Y      Y    6-31g**
  C23       1.949  1.900  0.770   12.000    Y    Y      Y    6-31g**
  C24       1.949  1.900  0.770   12.000    Y    Y      Y    6-31g**
  P25       2.147  2.074  1.060   30.974    Y    Y      Y    6-31g**
  O26       1.702  1.600  0.730   15.995    Y    Y      Y    6-31g**
  O27       1.702  1.600  0.730   15.995    Y    Y      Y    6-31g**
  C28       1.949  1.900  0.770   12.000    Y    Y      Y    6-31g**
  C29       1.949  1.900  0.770   12.000    Y    Y      Y    6-31g**
  C30       1.949  1.900  0.770   12.000    Y    Y      Y    6-31g**
  C31       1.949  1.900  0.770   12.000    Y    Y      Y    6-31g**
  C32       1.949  1.900  0.770   12.000    Y    Y      Y    6-31g**
  C33       1.949  1.900  0.770   12.000    Y    Y      Y    6-31g**
  C34       1.949  1.900  0.770   12.000    Y    Y      Y    6-31g**
  C35       1.949  1.900  0.770   12.000    Y    Y      Y    6-31g**
  C36       1.949  1.900  0.770   12.000    Y    Y      Y    6-31g**
  C37       1.949  1.900  0.770   12.000    Y    Y      Y    6-31g**
  C38       1.949  1.900  0.770   12.000    Y    Y      Y    6-31g**
  C39       1.949  1.900  0.770   12.000    Y    Y      Y    6-31g**
  C40       1.949  1.900  0.770   12.000    Y    Y      Y    6-31g**
  C41       1.949  1.900  0.770   12.000    Y    Y      Y    6-31g**
  C42       1.949  1.900  0.770   12.000    Y    Y      Y    6-31g**
  C43       1.949  1.900  0.770   12.000    Y    Y      Y    6-31g**
  C44       1.949  1.900  0.770   12.000    Y    Y      Y    6-31g**
  C45       1.949  1.900  0.770   12.000    Y    Y      Y    6-31g**
  C46       1.949  1.900  0.770   12.000    Y    Y      Y    6-31g**
  C47       1.949  1.900  0.770   12.000    Y    Y      Y    6-31g**
  C48       1.949  1.900  0.770   12.000    Y    Y      Y    6-31g**
  C49       1.949  1.900  0.770   12.000    Y    Y      Y    6-31g**
  C50       1.949  1.900  0.770   12.000    Y    Y      Y    6-31g**
  C51       1.949  1.900  0.770   12.000    Y    Y      Y    6-31g**
  C52       1.949  1.900  0.770   12.000    Y    Y      Y    6-31g**
  C53       1.949  1.900  0.770   12.000    Y    Y      Y    6-31g**
  C54       1.949  1.900  0.770   12.000    Y    Y      Y    6-31g**
  C55       1.949  1.900  0.770   12.000    Y    Y      Y    6-31g**
  C56       1.949  1.900  0.770   12.000    Y    Y      Y    6-31g**
  C57       1.949  1.900  0.770   12.000    Y    Y      Y    6-31g**
  C58       1.949  1.900  0.770   12.000    Y    Y      Y    6-31g**
  C59       1.949  1.900  0.770   12.000    Y    Y      Y    6-31g**
  C60       1.949  1.900  0.770   12.000    Y    Y      Y    6-31g**
  C61       1.949  1.900  0.770   12.000    Y    Y      Y    6-31g**
  C62       1.949  1.900  0.770   12.000    Y    Y      Y    6-31g**
  C63       1.949  1.900  0.770   12.000    Y    Y      Y    6-31g**
  C64       1.949  1.900  0.770   12.000    Y    Y      Y    6-31g**
  C65       1.949  1.900  0.770   12.000    Y    Y      Y    6-31g**
  C66       1.949  1.900  0.770   12.000    Y    Y      Y    6-31g**
  C67       1.949  1.900  0.770   12.000    Y    Y      Y    6-31g**
  C68       1.949  1.900  0.770   12.000    Y    Y      Y    6-31g**
  C69       1.949  1.900  0.770   12.000    Y    Y      Y    6-31g**
  C70       1.949  1.900  0.770   12.000    Y    Y      Y    6-31g**
  N71       1.831  1.600  0.750   14.003    Y    Y      Y    6-31g**
  S72       2.070  1.900  1.020   31.972    Y    Y      Y    6-31g**
  O73       1.702  1.600  0.730   15.995    Y    Y      Y    6-31g**
  O74       1.702  1.600  0.730   15.995    Y    Y      Y    6-31g**
  C75       1.949  1.900  0.770   12.000    Y    Y      Y    6-31g**
  C76       1.949  1.900  0.770   12.000    Y    Y      Y    6-31g**
  C77       1.949  1.900  0.770   12.000    Y    Y      Y    6-31g**
  C78       1.949  1.900  0.770   12.000    Y    Y      Y    6-31g**
  C79       1.949  1.900  0.770   12.000    Y    Y      Y    6-31g**
  N80       1.831  1.600  0.750   14.003    Y    Y      Y    6-31g**
  N81       1.831  1.600  0.750   14.003    Y    Y      Y    6-31g**
  C82       1.949  1.900  0.770   12.000    Y    Y      Y    6-31g**
  C83       1.949  1.900  0.770   12.000    Y    Y      Y    6-31g**
  C84       1.949  1.900  0.770   12.000    Y    Y      Y    6-31g**
  C85       1.949  1.900  0.770   12.000    Y    Y      Y    6-31g**
  H86       1.597  1.150  0.320    1.008    Y    Y      Y    6-31g**
  H87       1.597  1.150  0.320    1.008    Y    Y      Y    6-31g**
  H88       1.597  1.150  0.320    1.008    Y    Y      Y    6-31g**
  H89       1.597  1.150  0.320    1.008    Y    Y      Y    6-31g**
  H90       1.597  1.150  0.320    1.008    Y    Y      Y    6-31g**
  H91       1.597  1.150  0.320    1.008    Y    Y      Y    6-31g**
  H92       1.597  1.150  0.320    1.008    Y    Y      Y    6-31g**
  H93       1.597  1.150  0.320    1.008    Y    Y      Y    6-31g**
  H94       1.597  1.150  0.320    1.008    Y    Y      Y    6-31g**
  H95       1.597  1.150  0.320    1.008    Y    Y      Y    6-31g**
  H96       1.597  1.150  0.320    1.008    Y    Y      Y    6-31g**
  H97       1.597  1.150  0.320    1.008    Y    Y      Y    6-31g**
  H98       1.597  1.150  0.320    1.008    Y    Y      Y    6-31g**
  H99       1.597  1.150  0.320    1.008    Y    Y      Y    6-31g**
  H100      1.597  1.150  0.320    1.008    Y    Y      Y    6-31g**
  H101      1.597  1.150  0.320    1.008    Y    Y      Y    6-31g**
  H102      1.597  1.150  0.320    1.008    Y    Y      Y    6-31g**
  H103      1.597  1.150  0.320    1.008    Y    Y      Y    6-31g**
  H104      1.597  1.150  0.320    1.008    Y    Y      Y    6-31g**
  H105      1.597  1.150  0.320    1.008    Y    Y      Y    6-31g**
  H106      1.597  1.150  0.320    1.008    Y    Y      Y    6-31g**
  H107      1.597  1.150  0.320    1.008    Y    Y      Y    6-31g**
  H108      1.597  1.150  0.320    1.008    Y    Y      Y    6-31g**
  H109      1.597  1.150  0.320    1.008    Y    Y      Y    6-31g**
  H110      1.597  1.150  0.320    1.008    Y    Y      Y    6-31g**
  H111      1.597  1.150  0.320    1.008    Y    Y      Y    6-31g**
  H112      1.597  1.150  0.320    1.008    Y    Y      Y    6-31g**
  H113      1.597  1.150  0.320    1.008    Y    Y      Y    6-31g**
  H114      1.597  1.150  0.320    1.008    Y    Y      Y    6-31g**
  H115      1.597  1.150  0.320    1.008    Y    Y      Y    6-31g**
  H116      1.597  1.150  0.320    1.008    Y    Y      Y    6-31g**
  H117      1.597  1.150  0.320    1.008    Y    Y      Y    6-31g**
  H118      1.597  1.150  0.320    1.008    Y    Y      Y    6-31g**
  H119      1.597  1.150  0.320    1.008    Y    Y      Y    6-31g**
  H120      1.597  1.150  0.320    1.008    Y    Y      Y    6-31g**
  H121      1.597  1.150  0.320    1.008    Y    Y      Y    6-31g**
  H122      1.597  1.150  0.320    1.008    Y    Y      Y    6-31g**
  H123      1.597  1.150  0.320    1.008    Y    Y      Y    6-31g**
  H124      1.597  1.150  0.320    1.008    Y    Y      Y    6-31g**
  H125      1.597  1.150  0.320    1.008    Y    Y      Y    6-31g**
  H126      1.597  1.150  0.320    1.008    Y    Y      Y    6-31g**
  H127      1.597  1.150  0.320    1.008    Y    Y      Y    6-31g**
  H128      1.597  1.150  0.320    1.008    Y    Y      Y    6-31g**
  H129      1.597  1.150  0.320    1.008    Y    Y      Y    6-31g**
  H130      1.597  1.150  0.320    1.008    Y    Y      Y    6-31g**
  H131      1.597  1.150  0.320    1.008    Y    Y      Y    6-31g**
  H132      1.597  1.150  0.320    1.008    Y    Y      Y    6-31g**
  H133      1.597  1.150  0.320    1.008    Y    Y      Y    6-31g**
  H134      1.597  1.150  0.320    1.008    Y    Y      Y    6-31g**
  H135      1.597  1.150  0.320    1.008    Y    Y      Y    6-31g**
  H136      1.597  1.150  0.320    1.008    Y    Y      Y    6-31g**
  H137      1.597  1.150  0.320    1.008    Y    Y      Y    6-31g**
  H138      1.597  1.150  0.320    1.008    Y    Y      Y    6-31g**
  H139      1.597  1.150  0.320    1.008    Y    Y      Y    6-31g**
  H140      1.597  1.150  0.320    1.008    Y    Y      Y    6-31g**
  H141      1.597  1.150  0.320    1.008    Y    Y      Y    6-31g**
  
  Peak memory usage:    766 Mb
  
  end of program pre
   
 Time(pre)  user:        0.8  user+sys:        0.8  wallclock:        1.2
  
  start of program onee
  
  smallest eigenvalue of S:    2.213E-04
  number of canonical orbitals.....         1564
  Peak memory usage:    893 Mb
  
  end of program onee
   
 Time(onee)  user:       13.8  user+sys:       13.8  wallclock:       16.1
  
  start of program hfig
  
  initial wavefunction generated automatically from atomic wavefunctions
 
  Irreducible     Total no   No of occupied orbitals 
  representation  orbitals   Shell_1  Shell_2    ...
  No Symm         1564        308
  ------------------------
  Orbital occupation/shell    1.000
 
  Peak memory usage:    826 Mb
  
  end of program hfig
   
 Time(hfig)  user:       23.3  user+sys:       23.3  wallclock:       26.7
  
  start of program probe
  
  Peak memory usage:    820 Mb
  
  end of program probe
   
 Time(probe)  user:       16.0  user+sys:       16.0  wallclock:       17.4
  
  start of program grid
  
   grid     grid set  grid #  grid sym
  ------    --------  ------  --------
  coarse        0        0        1
  medium        2        1        1
  fine          0        0        1
  ultrafine     4        2        1
  charge       -1        3        1
  gradient      4        2        1
  density       0        0        1
  DFT-fine    -13        4        1
  DFT-med.    -13        4        1
  DFT-grad    -13        4        1
  DFT-der2      0        0        1
  DFT-cphf      0        0        1
  LMP2-enrg     4        2        1
  LMP2-grad     2        1        1
  DFT-cphf2     0        0        1
  PBF-dens      0        0        1
  plotting      0        0        1
  Rel-grad    -17        0        1
  
  number of gridpoints: 
     atom        C1       C2       C3       C4       C5       C6       C7
  grid # 1       97      100       94      101      100       96       92
  grid # 2      337      360      336      367      356      336      335
  grid # 3       32       26       42       43       15       46       17
  grid # 4    48124    48124    48124    48124    48124    48124    48124
   
  number of gridpoints: 
     atom        C8       C9      C10      C11      O12     Si13      C14
  grid # 1       94       97      100      100      112      478      102
  grid # 2      335      357      357      354      436      478      359
  grid # 3       48       19       12        9       53        9       29
  grid # 4    48124    48124    48124    48124    47716    38542    48124
   
  number of gridpoints: 
     atom       C15      C16      C17      C18      C19      C20     Si21
  grid # 1       97      101       97       94       98      100      483
  grid # 2      356      366      338      334      340      359      483
  grid # 3       11       44       32       26       47       12       10
  grid # 4    48124    48124    48124    48124    48124    48124    38542
   
  number of gridpoints: 
     atom       O22      C23      C24      P25      O26      O27      C28
  grid # 1      112       95       94      442      116      114       99
  grid # 2      434      338      338      442      444      440      358
  grid # 3       30       42       47        8       41       30       11
  grid # 4    47716    48124    48124    38640    47716    47716    48124
   
  number of gridpoints: 
     atom       C29      C30      C31      C32      C33      C34      C35
  grid # 1      102      101      100      100      100       92       95
  grid # 2      360      360      358      359      357      333      328
  grid # 3       21       21        9       12       12       18       10
  grid # 4    48124    48124    48124    48124    48124    48124    48124
   
  number of gridpoints: 
     atom       C36      C37      C38      C39      C40      C41      C42
  grid # 1       93       96       94       97       93       96       93
  grid # 2      336      339      334      337      333      333      330
  grid # 3       32       29       24       25       13       20        9
  grid # 4    48124    48124    48124    48124    48124    48124    48124
   
  number of gridpoints: 
     atom       C43      C44      C45      C46      C47      C48      C49
  grid # 1       96       92       96       93       93       92       94
  grid # 2      335      335      339      332      332      334      336
  grid # 3       13       21       30       27       27       24       44
  grid # 4    48124    48124    48124    48124    48124    48124    48124
   
  number of gridpoints: 
     atom       C50      C51      C52      C53      C54      C55      C56
  grid # 1       94       94       93       93       93       93       94
  grid # 2      336      337      336      335      335      330      334
  grid # 3       47       43       37       33       30       24       32
  grid # 4    48124    48124    48124    48124    48124    48124    48124
   
  number of gridpoints: 
     atom       C57      C58      C59      C60      C61      C62      C63
  grid # 1       94       92       93       93       93       94       94
  grid # 2      334      333      332      332      335      335      336
  grid # 3       32       21       25       22       38       43       41
  grid # 4    48124    48124    48124    48124    48124    48124    48124
   
  number of gridpoints: 
     atom       C64      C65      C66      C67      C68      C69      C70
  grid # 1       96       96      100       95       95       95       91
  grid # 2      332      335      363      329      327      331      325
  grid # 3       34       27       22        9       12       29        6
  grid # 4    48124    48124    48124    48124    48124    48124    48124
   
  number of gridpoints: 
     atom       N71      S72      O73      O74      C75      C76      C77
  grid # 1      100      448      123      119       97       95       95
  grid # 2      350      448      501      479      359      324      327
  grid # 3       17       19      272      121       26       16       23
  grid # 4    47928    48492    47716    47716    48124    48124    48124
   
  number of gridpoints: 
     atom       C78      C79      N80      N81      C82      C83      C84
  grid # 1       95       96      112       96       94       93       93
  grid # 2      329      335      424      348      328      330      329
  grid # 3       27       25      107       16       15       19       14
  grid # 4    48124    48124    47928    47928    48124    48124    48124
   
  number of gridpoints: 
     atom       C85      H86      H87      H88      H89      H90      H91
  grid # 1       91      111      118      118      112      118      112
  grid # 2      323      434      452      446      429      453      434
  grid # 3        7      244      418      360      205      423      235
  grid # 4    48124    48426    48426    48426    48426    48426    48426
   
  number of gridpoints: 
     atom       H92      H93      H94      H95      H96      H97      H98
  grid # 1      109      118      118      118      102      110      112
  grid # 2      426      442      449      450      395      428      427
  grid # 3      188      361      411      418       62      171      227
  grid # 4    48426    48426    48426    48426    48426    48426    48426
   
  number of gridpoints: 
     atom       H99     H100     H101     H102     H103     H104     H105
  grid # 1      109      111      109      107      111      108      109
  grid # 2      427      430      425      415      426      424      419
  grid # 3      209      215      172      124      178      213      151
  grid # 4    48426    48426    48426    48426    48426    48426    48426
   
  number of gridpoints: 
     atom      H106     H107     H108     H109     H110     H111     H112
  grid # 1      111      111      112      115      117      117      118
  grid # 2      427      437      433      443      448      451      452
  grid # 3      201      264      244      301      374      387      421
  grid # 4    48426    48426    48426    48426    48426    48426    48426
   
  number of gridpoints: 
     atom      H113     H114     H115     H116     H117     H118     H119
  grid # 1      118      118      117      114      113      116      117
  grid # 2      453      453      451      438      437      443      452
  grid # 3      424      423      396      291      271      315      395
  grid # 4    48426    48426    48426    48426    48426    48426    48426
   
  number of gridpoints: 
     atom      H120     H121     H122     H123     H124     H125     H126
  grid # 1      117      117      115      114      118      118      118
  grid # 2      451      449      442      440      452      453      453
  grid # 3      403      378      314      265      414      423      424
  grid # 4    48426    48426    48426    48426    48426    48426    48426
   
  number of gridpoints: 
     atom      H127     H128     H129     H130     H131     H132     H133
  grid # 1      118      112      102      111      118      105      104
  grid # 2      451      437      407      429      449      414      406
  grid # 3      418      292       65      192      400      129       63
  grid # 4    48426    48426    48426    48426    48426    48426    48426
   
  number of gridpoints: 
     atom      H134     H135     H136     H137     H138     H139     H140
  grid # 1      113      117      117      101      108      117      114
  grid # 2      435      451      453      396      430      458      446
  grid # 3      234      379      416       71      173      422      291
  grid # 4    48426    48426    48426    48426    48426    48426    48426
   
  number of gridpoints: 
     atom      H141    total
  grid # 1      104    16067
  grid # 2      410    54630
  grid # 3       53    18474
  grid # 4    48426  6771080
   
  Peak memory usage:    793 Mb
  
  end of program grid
   
 Time(grid)  user:     1053.7  user+sys:     1053.7  wallclock:     1149.9
  
  start of program rwr
  
  Peak memory usage:    802 Mb
  
  end of program rwr
   
 Time(rwr)  user:       67.5  user+sys:       67.5  wallclock:      124.2
  
  start of program scf
  
 number of electrons..........        616
 number of alpha electrons....        308
 number of beta electrons.....        308
 number of orbitals, total....       1564
 number of doubly-occ'd orbs..        308
 number of open shell orbs....          0
 number of occupied orbitals..        308
 number of virtual orbitals...       1256
 number of hamiltonians.......          1
 number of shells.............          1
 SCF type: DFT=M06-2X
 Energy computed with NOPS off.
  
       i  u  d  i  g                   
       t  p  i  c  r                                 RMS    maximum
       e  d  i  u  i                       energy  density   DIIS  
       r  t  s  t  d       total energy    change  change    error 
  
etot    1  N  N  1  U   -4700.05017809037           2.1E-03  1.7E-01
etot    2  N  Y  1  U   -4706.89775607189  6.8E+00  2.9E-03  6.9E-02
etot    3  N  Y  1  U   -4704.38028520979 -2.5E+00  2.5E-03  9.5E-02
etot    4  N  Y  1  U   -4709.74603314155  5.4E+00  5.9E-04  2.4E-02
etot    5  N  Y  1  U   -4709.91006267962  1.6E-01  2.8E-04  1.1E-02
etot    6  N  Y  1  U   -4710.02204025554  1.1E-01  8.1E-05  3.6E-03
etot    7  N  Y  1  U   -4710.03119793139  9.2E-03  3.2E-05  1.6E-03
etot    8  N  Y  1  U   -4710.03236700083  1.2E-03  1.5E-05  8.5E-04
etot    9  N  Y  1  U   -4710.03258832514  2.2E-04  5.5E-06  2.2E-04
etot   10  N  N  1  U   -4710.03262940374  4.1E-05  0.0E+00  0.0E+00
  
  
 Energy components, in hartrees:
   (A)  Nuclear repulsion............   17441.27789576190
   (E)  Total one-electron terms.....  -41220.09800055450
   (F)    Electron-nuclear...........  -45895.32843015170
   (H)    Kinetic....................    4675.23042959720
   (I)  Total two-electron terms.....   19068.78747538886
   (J)    Coulomb....................   19642.11649935470
   (K)    Exchange+Correlation.......    -573.32902396584
   (L)  Electronic energy............  -22151.31052516564  (E+I)
   (M)  -V/T.........................       2.00744395390  (-(A+F+I)/H)
   (N)  Total energy.................   -4710.03262940374  (A+L)
   (O)  Gas phase energy.............   -4710.03262940374
  
 SCFE: SCF energy: DFT(m06-2x)     -4710.03262940374 hartrees   iterations:  10
  
 
 HOMO energy:    -0.24928
 LUMO energy:    -0.06437
 
  Orbital energies (hartrees): 
   -90.16331   -78.18403   -67.01056   -67.00269   -19.67529   -19.67211
   -19.64409   -19.64144   -19.58974   -19.58734   -14.81147   -14.80815
   -14.78303   -10.66007   -10.62388   -10.61979   -10.61498   -10.60569
   -10.60331   -10.58920   -10.58157   -10.58092   -10.57798   -10.57728
   -10.57287   -10.57228   -10.56879   -10.56795   -10.56618   -10.56604
   -10.56525   -10.56295   -10.56129   -10.56063   -10.56020   -10.55842
   -10.55636   -10.55575   -10.55551   -10.55455   -10.55347   -10.55249
   -10.55234   -10.55186   -10.55101   -10.55094   -10.55080   -10.55044
   -10.55025   -10.55003   -10.54931   -10.54921   -10.54902   -10.54739
   -10.54714   -10.54705   -10.54677   -10.54614   -10.54595   -10.54518
   -10.54485   -10.54468   -10.54395   -10.54376   -10.54342   -10.54315
   -10.54237   -10.54143   -10.54138   -10.54115   -10.53942   -10.53920
   -10.53905   -10.53707   -10.53640   -10.53563   -10.53322   -10.53267
   -10.53229   -10.53228   -10.53045   -10.53017   -10.52782   -10.52478
   -10.51960    -8.47353    -6.96312    -6.39591    -6.39478    -6.39385
    -5.54144    -5.53341    -5.08176    -5.08057    -5.07897    -3.85126
    -3.85093    -3.85073    -3.84338    -3.84293    -3.84255    -1.23776
    -1.21127    -1.16772    -1.12686    -1.10087    -1.08581    -1.07550
    -1.05926    -1.03944    -0.97846    -0.97236    -0.96360    -0.94812
    -0.94201    -0.93818    -0.93810    -0.93487    -0.92751    -0.91823
    -0.91733    -0.90649    -0.89251    -0.88649    -0.88587    -0.87590
    -0.85361    -0.85059    -0.84417    -0.84007    -0.83806    -0.83487
    -0.83322    -0.83027    -0.82891    -0.82872    -0.82842    -0.82683
    -0.82468    -0.82401    -0.82198    -0.82023    -0.81799    -0.81501
    -0.79575    -0.79550    -0.75460    -0.73174    -0.73059    -0.71126
    -0.70326    -0.69730    -0.69452    -0.69372    -0.68631    -0.68442
    -0.68103    -0.67694    -0.67567    -0.67335    -0.67110    -0.66964
    -0.66825    -0.66667    -0.66343    -0.66279    -0.66078    -0.65805
    -0.65731    -0.65390    -0.65047    -0.64527    -0.64156    -0.63717
    -0.61767    -0.61378    -0.60842    -0.59949    -0.59741    -0.59477
    -0.58298    -0.57892    -0.57814    -0.57628    -0.57434    -0.57112
    -0.56878    -0.56446    -0.56403    -0.55822    -0.55107    -0.54552
    -0.54444    -0.53586    -0.53570    -0.53152    -0.52642    -0.52464
    -0.52335    -0.52197    -0.52030    -0.51645    -0.51415    -0.51318
    -0.51265    -0.50897    -0.50674    -0.50552    -0.50430    -0.50246
    -0.49988    -0.49903    -0.49571    -0.49490    -0.49389    -0.49317
    -0.49302    -0.49235    -0.49043    -0.48932    -0.48760    -0.48684
    -0.48473    -0.48272    -0.48176    -0.48068    -0.47912    -0.47677
    -0.47582    -0.47423    -0.47017    -0.46810    -0.46534    -0.46457
    -0.46004    -0.45626    -0.45267    -0.44989    -0.44883    -0.44841
    -0.44588    -0.44468    -0.44008    -0.43764    -0.42916    -0.42826
    -0.42662    -0.42519    -0.42454    -0.41956    -0.41949    -0.41800
    -0.41539    -0.41451    -0.41103    -0.41067    -0.40634    -0.40281
    -0.39878    -0.39796    -0.39710    -0.39551    -0.39163    -0.38959
    -0.38805    -0.38720    -0.38657    -0.38436    -0.38292    -0.38143
    -0.37843    -0.37467    -0.37300    -0.37262    -0.36754    -0.35568
    -0.35186    -0.34753    -0.34497    -0.34335    -0.34210    -0.34004
    -0.33873    -0.33735    -0.33191    -0.33068    -0.32880    -0.32350
    -0.32297    -0.31725    -0.31320    -0.30548    -0.30106    -0.29961
    -0.29877    -0.29843    -0.29515    -0.29440    -0.29074    -0.28710
    -0.28446    -0.28373    -0.28288    -0.27981    -0.27780    -0.27389
    -0.26964    -0.24928    -0.06437    -0.01447    -0.01036     0.00011
     0.00276     0.01351     0.01544     0.01617     0.01945     0.02259
 
  Peak memory usage:   1020 Mb
  
  end of program scf
   
 Time(scf)  user:    24605.1  user+sys:    24605.1  wallclock:    25910.1
  
  start of program ch
  
  gridpoints used for charge fit        16018
    out of a possible maximum of        18474
  
   Electrostatic potential fitting constrained to reproduce
     total charge:                yes
     dipole moment:               no 
     traceless quadrupole moment: no 
     traceless octapole moment:   no 
  
  Atomic charges from electrostatic potential: 
   
 Atom       C1           C2           C3           C4           C5      
 Charge   -0.07260     -0.06387     -0.21309      0.24246      0.10475
   
 Atom       C6           C7           C8           C9           C10     
 Charge   -0.26388     -0.37842     -0.07387      0.05379     -0.13775
   
 Atom       C11          O12          Si13         C14          C15     
 Charge    0.05939     -0.26649      0.02302      0.06890      0.08962
   
 Atom       C16          C17          C18          C19          C20     
 Charge    0.26512     -0.16127     -0.48074     -0.25017      0.14983
   
 Atom       Si21         O22          C23          C24          P25     
 Charge   -0.09981     -0.29937     -0.15749     -0.10656      0.99658
   
 Atom       O26          O27          C28          C29          C30     
 Charge   -0.72392     -0.59470      0.09332     -0.02147      0.06587
   
 Atom       C31          C32          C33          C34          C35     
 Charge   -0.01309      0.23495      0.18074     -0.15283     -0.02539
   
 Atom       C36          C37          C38          C39          C40     
 Charge   -0.07921     -0.07346     -0.24431     -0.05825      0.00825
   
 Atom       C41          C42          C43          C44          C45     
 Charge   -0.13113     -0.16336     -0.18304     -0.16093     -0.25632
   
 Atom       C46          C47          C48          C49          C50     
 Charge   -0.18591     -0.09069     -0.19563     -0.16291     -0.11152
   
 Atom       C51          C52          C53          C54          C55     
 Charge   -0.16663     -0.09228     -0.14039     -0.11627     -0.22487
   
 Atom       C56          C57          C58          C59          C60     
 Charge   -0.08860     -0.16356     -0.16932     -0.12455     -0.14787
   
 Atom       C61          C62          C63          C64          C65     
 Charge   -0.14050     -0.16202     -0.08150     -0.17733     -0.12726
   
 Atom       C66          C67          C68          C69          C70     
 Charge    0.02746      0.10307     -0.14389     -0.12293     -0.07323
   
 Atom       N71          S72          O73          O74          C75     
 Charge   -0.22417      0.80290     -0.44736     -0.46473      0.57430
   
 Atom       C76          C77          C78          C79          N80     
 Charge   -0.46669      0.36564     -0.60726      0.50185     -0.69779
   
 Atom       N81          C82          C83          C84          C85     
 Charge   -0.14131      0.20862     -0.47634      0.05896     -0.17816
   
 Atom       H86          H87          H88          H89          H90     
 Charge    0.11221      0.15148      0.15147      0.18742      0.12605
   
 Atom       H91          H92          H93          H94          H95     
 Charge    0.12132      0.21298      0.14832      0.14087      0.12884
   
 Atom       H96          H97          H98          H99          H100    
 Charge    0.24954      0.15267      0.08901      0.10417      0.07029
   
 Atom       H101         H102         H103         H104         H105    
 Charge    0.17447      0.04052      0.08031      0.13197      0.14068
   
 Atom       H106         H107         H108         H109         H110    
 Charge    0.12028      0.11660      0.12904      0.13416      0.12072
   
 Atom       H111         H112         H113         H114         H115    
 Charge    0.13386      0.13275      0.12707      0.13745      0.12436
   
 Atom       H116         H117         H118         H119         H120    
 Charge    0.11685      0.09390      0.13251      0.11966      0.14282
   
 Atom       H121         H122         H123         H124         H125    
 Charge    0.13938      0.11231      0.12172      0.13429      0.13497
   
 Atom       H126         H127         H128         H129         H130    
 Charge    0.12472      0.15016      0.13630      0.07982      0.12076
   
 Atom       H131         H132         H133         H134         H135    
 Charge    0.13819      0.17059      0.16061      0.06854      0.21435
   
 Atom       H136         H137         H138         H139         H140    
 Charge    0.03667      0.35224      0.06613      0.22456      0.10847
   
 Atom       H141    
 Charge    0.14947
  
  sum of atomic charges:    -0.000000
   
 RMS Error   9.91E-04 hartrees
 
  Peak memory usage:    810 Mb
  
  end of program ch
   
 Time(ch)  user:       16.3  user+sys:       16.3  wallclock:       27.1
  
  start of program post
  
  Writing input files for PBF
  Peak memory usage:    758 Mb
  
  end of program post
   
 Time(post)  user:        0.8  user+sys:        0.8  wallclock:        1.1

  start of program pbf

Pbf Version 4.10

Molecular surface area:      793.60787   [A2]
Reaction field energy:       -16.32457   [kT]
  Peak memory usage: 719 Mb

  end of program pbf

 Time(pbf)  user:       16.5  user+sys:       16.9  wallclock:       17.3
  
  start of program solv
  
   number of surface charges from PBF   13320
   sum of surface charges     -0.00031
   
  nuclear repulsion energy.......   17441.277895762 hartrees
  Peak memory usage:    887 Mb
  
  end of program solv
   
 Time(solv)  user:       33.9  user+sys:       33.9  wallclock:       34.8
  
  start of program scf
  
 Energy computed with NOPS off.
  
       i  u  d  i  g                   
       t  p  i  c  r                                 RMS    maximum
       e  d  i  u  i                       energy  density   DIIS  
       r  t  s  t  d       total energy    change  change    error 
  
etot    1  N  N  1  U   -4710.06674550497           5.8E-05  1.4E-03
etot    2  N  Y  1  U   -4710.06750824970  7.6E-04  1.8E-05  1.0E-03
etot    3  N  Y  1  U   -4710.06778078303  2.7E-04  5.9E-06  3.8E-04
etot    4  N  Y  1  U   -4710.06783432272  5.4E-05  2.4E-06  1.0E-04
etot    5  N  N  1  U   -4710.06784041815  6.1E-06  0.0E+00  0.0E+00
  
  
 Energy components, in hartrees:
   (A)  Total zero-electron terms....   17443.42701667773
   (B)    Nuclear-nuclear............   17441.27789576190
   (C)    Nuclear-solvent............       2.14912091583
   (E)  Total one-electron terms.....  -41223.57783419651
   (F)    Electron-nuclear...........  -45896.68049827005
   (G)    Electron-solvent...........      -2.18541916696
   (H)    Kinetic....................    4675.28808324051
   (I)  Total two-electron terms.....   19070.08297710062
   (J)    Coulomb....................   19643.43257592658
   (K)    Exchange+Correlation.......    -573.34959882596
   (L)  Electronic energy............  -22153.49485709588  (E+I)
   (N)  Total quantum mech. energy...   -4710.06784041815  (A+L)
   (O)  Gas phase energy.............   -4710.03262940374
   (P)  Solution phase energy........   -4710.04969129259  (Q+R+S)
   (Q)    Total solute energy........   -4710.03154216702  (N-C-G)
   (R)    Total solvent energy.......      -0.01814912557  (C/2+G/2)
   (S)    Solute cavity energy.......       0.00000000000
   (U)  Reorganization energy........       0.00108723672  (Q-O)
   (V)  Solvation energy.............      -0.01706188885  (P-O)
  
 SCFE:  Solution phase energy: DFT(m06-2x)      -4710.04969129259 hartrees
        SCF iterations:   5
  
 
 HOMO energy:    -0.25166
 LUMO energy:    -0.06427
 
  Orbital energies (hartrees): 
   -90.16950   -78.18562   -67.01186   -67.00564   -19.67707   -19.67399
   -19.65278   -19.64695   -19.59128   -19.58839   -14.81412   -14.80797
   -14.78596   -10.66001   -10.62682   -10.62200   -10.61656   -10.60551
   -10.60326   -10.58939   -10.58127   -10.57882   -10.57829   -10.57661
   -10.57138   -10.56967   -10.56948   -10.56803   -10.56703   -10.56440
   -10.56234   -10.56211   -10.56166   -10.56012   -10.55986   -10.55817
   -10.55811   -10.55509   -10.55412   -10.55389   -10.55362   -10.55287
   -10.55250   -10.55250   -10.55245   -10.55160   -10.55152   -10.55130
   -10.55109   -10.55087   -10.55054   -10.55046   -10.55030   -10.54877
   -10.54861   -10.54848   -10.54843   -10.54770   -10.54763   -10.54729
   -10.54645   -10.54575   -10.54546   -10.54530   -10.54513   -10.54462
   -10.54422   -10.54415   -10.54354   -10.54301   -10.54299   -10.54098
   -10.54089   -10.53974   -10.53835   -10.53669   -10.53641   -10.53540
   -10.53487   -10.53481   -10.53323   -10.53158   -10.53025   -10.52849
   -10.52280    -8.47973    -6.96470    -6.40206    -6.40107    -6.40001
    -5.54276    -5.53639    -5.08334    -5.08215    -5.08053    -3.85257
    -3.85224    -3.85205    -3.84635    -3.84591    -3.84552    -1.24484
    -1.21297    -1.16951    -1.13444    -1.10103    -1.08703    -1.07778
    -1.06147    -1.04080    -0.98009    -0.97014    -0.96554    -0.94810
    -0.94372    -0.94139    -0.93934    -0.93757    -0.93059    -0.91962
    -0.91779    -0.90848    -0.89302    -0.88848    -0.88570    -0.87474
    -0.85210    -0.85088    -0.84464    -0.84070    -0.83993    -0.83619
    -0.83371    -0.83211    -0.83087    -0.83020    -0.82935    -0.82822
    -0.82682    -0.82523    -0.82349    -0.82273    -0.82077    -0.81794
    -0.79765    -0.79688    -0.75535    -0.73270    -0.73182    -0.71120
    -0.70458    -0.69852    -0.69587    -0.69306    -0.68768    -0.68465
    -0.68031    -0.67703    -0.67539    -0.67424    -0.67305    -0.67112
    -0.67040    -0.66855    -0.66341    -0.66228    -0.66127    -0.66070
    -0.65935    -0.65547    -0.65315    -0.64655    -0.64303    -0.63761
    -0.61909    -0.61254    -0.60919    -0.60204    -0.60030    -0.59608
    -0.58267    -0.58019    -0.57938    -0.57774    -0.57582    -0.57273
    -0.57112    -0.56486    -0.56364    -0.55929    -0.55223    -0.54541
    -0.54511    -0.53745    -0.53701    -0.53349    -0.53019    -0.52511
    -0.52359    -0.52170    -0.52021    -0.51623    -0.51461    -0.51429
    -0.51370    -0.50973    -0.50740    -0.50669    -0.50481    -0.50246
    -0.50042    -0.49889    -0.49779    -0.49635    -0.49564    -0.49470
    -0.49399    -0.49353    -0.49139    -0.48906    -0.48882    -0.48667
    -0.48636    -0.48352    -0.48276    -0.48158    -0.47935    -0.47859
    -0.47707    -0.47592    -0.46969    -0.46845    -0.46748    -0.46442
    -0.46065    -0.45644    -0.45337    -0.45160    -0.44952    -0.44786
    -0.44772    -0.44625    -0.44212    -0.43853    -0.43054    -0.42888
    -0.42825    -0.42743    -0.42632    -0.42262    -0.42157    -0.41969
    -0.41816    -0.41719    -0.41326    -0.41197    -0.40573    -0.40404
    -0.40295    -0.40012    -0.39768    -0.39643    -0.39259    -0.39225
    -0.39012    -0.38849    -0.38777    -0.38695    -0.38640    -0.38394
    -0.38213    -0.37800    -0.37521    -0.37447    -0.36951    -0.35710
    -0.35346    -0.34937    -0.34668    -0.34410    -0.34366    -0.34226
    -0.34140    -0.34019    -0.33446    -0.33192    -0.33004    -0.32516
    -0.32302    -0.31560    -0.31246    -0.30552    -0.30287    -0.30202
    -0.30129    -0.29986    -0.29859    -0.29648    -0.29350    -0.28880
    -0.28650    -0.28625    -0.28572    -0.28249    -0.28094    -0.27417
    -0.27142    -0.25166    -0.06427    -0.01686    -0.01211    -0.00146
     0.00209     0.01191     0.01333     0.01608     0.02034     0.02079
 
  Peak memory usage:   1020 Mb
  
  end of program scf
   
 Time(scf)  user:     9851.3  user+sys:     9851.3  wallclock:    10310.5
  
  start of program sole
  
    SCRF                   solvation energy
  iteration          Hartrees            kcal/mol
     0               0.0000000            0.0000
     1              -0.0170619          -10.7065
  
  solvation energy not yet converged... 
  
  Peak memory usage:    812 Mb
  
  end of program sole
   
 Time(sole)  user:        0.1  user+sys:        0.1  wallclock:        0.3
  
  start of program ch
  
  gridpoints used for charge fit        16018
    out of a possible maximum of        16018
  
   Electrostatic potential fitting constrained to reproduce
     total charge:                yes
     dipole moment:               no 
     traceless quadrupole moment: no 
     traceless octapole moment:   no 
  
  Atomic charges from electrostatic potential: 
   
 Atom       C1           C2           C3           C4           C5      
 Charge   -0.07317     -0.06843     -0.22172      0.24394      0.12026
   
 Atom       C6           C7           C8           C9           C10     
 Charge   -0.26999     -0.39278     -0.08031      0.02693     -0.15076
   
 Atom       C11          O12          Si13         C14          C15     
 Charge    0.08856     -0.24628     -0.00287      0.07265      0.08911
   
 Atom       C16          C17          C18          C19          C20     
 Charge    0.26759     -0.16316     -0.49586     -0.26090      0.16600
   
 Atom       Si21         O22          C23          C24          P25     
 Charge   -0.12878     -0.29844     -0.16652     -0.11118      0.98202
   
 Atom       O26          O27          C28          C29          C30     
 Charge   -0.71778     -0.59341      0.10826     -0.03029      0.08265
   
 Atom       C31          C32          C33          C34          C35     
 Charge   -0.00174      0.25549      0.18760     -0.16755     -0.03008
   
 Atom       C36          C37          C38          C39          C40     
 Charge   -0.07776     -0.06666     -0.27083     -0.06990      0.00350
   
 Atom       C41          C42          C43          C44          C45     
 Charge   -0.14142     -0.17068     -0.19255     -0.16613     -0.26147
   
 Atom       C46          C47          C48          C49          C50     
 Charge   -0.18932     -0.10434     -0.19334     -0.17248     -0.11713
   
 Atom       C51          C52          C53          C54          C55     
 Charge   -0.17952     -0.08610     -0.15581     -0.12002     -0.23502
   
 Atom       C56          C57          C58          C59          C60     
 Charge   -0.09506     -0.16979     -0.17699     -0.12917     -0.15779
   
 Atom       C61          C62          C63          C64          C65     
 Charge   -0.14663     -0.17019     -0.08916     -0.18630     -0.12332
   
 Atom       C66          C67          C68          C69          C70     
 Charge    0.01489      0.11124     -0.14928     -0.12489     -0.08938
   
 Atom       N71          S72          O73          O74          C75     
 Charge   -0.20995      0.81002     -0.47286     -0.47541      0.58393
   
 Atom       C76          C77          C78          C79          N80     
 Charge   -0.46650      0.36400     -0.60129      0.50700     -0.73258
   
 Atom       N81          C82          C83          C84          C85     
 Charge   -0.12732      0.21722     -0.48623      0.06142     -0.19610
   
 Atom       H86          H87          H88          H89          H90     
 Charge    0.11415      0.15958      0.15783      0.19546      0.13424
   
 Atom       H91          H92          H93          H94          H95     
 Charge    0.12329      0.21827      0.15540      0.14975      0.13680
   
 Atom       H96          H97          H98          H99          H100    
 Charge    0.24578      0.15484      0.09089      0.10708      0.06786
   
 Atom       H101         H102         H103         H104         H105    
 Charge    0.18436      0.04471      0.08284      0.13655      0.14400
   
 Atom       H106         H107         H108         H109         H110    
 Charge    0.12306      0.12053      0.12907      0.14089      0.13055
   
 Atom       H111         H112         H113         H114         H115    
 Charge    0.13897      0.14089      0.13501      0.14642      0.13021
   
 Atom       H116         H117         H118         H119         H120    
 Charge    0.12514      0.09816      0.14112      0.12718      0.14940
   
 Atom       H121         H122         H123         H124         H125    
 Charge    0.14504      0.11587      0.12885      0.14228      0.14296
   
 Atom       H126         H127         H128         H129         H130    
 Charge    0.13280      0.15863      0.14230      0.08456      0.12515
   
 Atom       H131         H132         H133         H134         H135    
 Charge    0.14557      0.17737      0.16622      0.07348      0.22340
   
 Atom       H136         H137         H138         H139         H140    
 Charge    0.04674      0.34315      0.06858      0.23261      0.11639
   
 Atom       H141    
 Charge    0.16212
  
  sum of atomic charges:    -0.000000
   
 RMS Error   1.00E-03 hartrees
 
  Peak memory usage:    811 Mb
  
  end of program ch
   
 Time(ch)  user:       16.3  user+sys:       16.3  wallclock:       19.1
  
  start of program post
  
  Writing input files for PBF
  Peak memory usage:    758 Mb
  
  end of program post
   
 Time(post)  user:        0.8  user+sys:        0.8  wallclock:        1.1

  start of program pbf

Pbf Version 4.10

Molecular surface area:      793.60787   [A2]
Reaction field energy:       -18.85069   [kT]
  Peak memory usage: 719 Mb

  end of program pbf

 Time(pbf)  user:       17.3  user+sys:       17.5  wallclock:       17.8
  
  start of program solv
  
   number of surface charges from PBF   13320
   sum of surface charges     -0.00033
   
  nuclear repulsion energy.......   17441.277895762 hartrees
  Peak memory usage:    887 Mb
  
  end of program solv
   
 Time(solv)  user:       33.9  user+sys:       33.9  wallclock:       34.9
  
  start of program scf
  
 Energy computed with NOPS off.
  
       i  u  d  i  g                   
       t  p  i  c  r                                 RMS    maximum
       e  d  i  u  i                       energy  density   DIIS  
       r  t  s  t  d       total energy    change  change    error 
  
etot    1  N  N  1  U   -4710.07049515001           7.0E-06  1.6E-04
etot    2  N  N  1  U   -4710.07049874478  3.6E-06  0.0E+00  0.0E+00
  
  
 Energy components, in hartrees:
   (A)  Total zero-electron terms....   17443.65561583493
   (B)    Nuclear-nuclear............   17441.27789576190
   (C)    Nuclear-solvent............       2.37772007303
   (E)  Total one-electron terms.....  -41224.08676867507
   (F)    Electron-nuclear...........  -45896.96841039084
   (G)    Electron-solvent...........      -2.41701002421
   (H)    Kinetic....................    4675.29865173998
   (I)  Total two-electron terms.....   19070.36065409537
   (J)    Coulomb....................   19643.71234887732
   (K)    Exchange+Correlation.......    -573.35169478195
   (L)  Electronic energy............  -22153.72611457970  (E+I)
   (N)  Total quantum mech. energy...   -4710.07049874478  (A+L)
   (O)  Gas phase energy.............   -4710.03262940374
   (P)  Solution phase energy........   -4710.05085376918  (Q+R+S)
   (Q)    Total solute energy........   -4710.03120879359  (N-C-G)
   (R)    Total solvent energy.......      -0.01964497559  (C/2+G/2)
   (S)    Solute cavity energy.......       0.00000000000
   (U)  Reorganization energy........       0.00142061015  (Q-O)
   (V)  Solvation energy.............      -0.01822436544  (P-O)
  
 SCFE:  Solution phase energy: DFT(m06-2x)      -4710.05085376918 hartrees
        SCF iterations:   2
  
 
 HOMO energy:    -0.27540
 LUMO energy:    -0.06363
 
  Orbital energies (hartrees): 
   -45.05560   -44.86176   -40.74223   -35.32677   -34.81615   -34.17788
   -30.37486   -27.57335   -25.58165   -21.14045   -17.64808   -17.44201
   -17.03910   -16.02335   -15.92562   -15.35876   -14.48087   -14.29085
   -13.69453   -13.68465   -13.34173   -13.02388   -12.44187   -12.26787
   -12.24509   -12.24069   -11.75810   -11.75558   -11.73590   -11.62199
   -11.61380   -11.23751   -11.21952   -11.20022   -11.19626   -11.11840
   -10.89001   -10.87451   -10.85956   -10.85702   -10.81041   -10.79581
   -10.79466   -10.72540   -10.70538   -10.68540   -10.64491   -10.64446
   -10.63543   -10.62314   -10.61183   -10.59870   -10.59722   -10.57927
   -10.56033   -10.55616   -10.55026   -10.54571   -10.54467   -10.52883
   -10.52818   -10.50789   -10.49794   -10.48295   -10.47026   -10.46807
   -10.46654   -10.46395   -10.44548   -10.44518   -10.43824   -10.40128
   -10.37710   -10.34803   -10.32065   -10.26524   -10.23247   -10.19726
   -10.18295   -10.04873   -10.00324    -9.95340    -9.83055    -9.75570
    -9.71760    -9.69032    -9.47974    -9.11790    -8.49825    -8.30145
    -8.29607    -7.39531    -6.74113    -6.68502    -6.58649    -5.62935
    -5.36489    -4.89400    -4.71466    -4.09176    -3.99347    -1.18985
    -1.08510    -1.06565    -1.00673    -0.97114    -0.96344    -0.95420
    -0.94747    -0.93320    -0.93084    -0.92575    -0.92300    -0.91903
    -0.91768    -0.91661    -0.91081    -0.89234    -0.88828    -0.87674
    -0.87446    -0.86797    -0.85042    -0.84741    -0.84461    -0.84211
    -0.83951    -0.82539    -0.82128    -0.81776    -0.80386    -0.80265
    -0.80233    -0.80054    -0.79865    -0.79760    -0.78112    -0.77785
    -0.77351    -0.77274    -0.75873    -0.75331    -0.74828    -0.74756
    -0.74327    -0.74109    -0.73383    -0.73316    -0.72576    -0.71782
    -0.71565    -0.71525    -0.70786    -0.67301    -0.66869    -0.66793
    -0.66347    -0.66317    -0.65928    -0.65464    -0.65452    -0.65192
    -0.65050    -0.64544    -0.64498    -0.64495    -0.63618    -0.63160
    -0.62882    -0.62876    -0.62868    -0.62601    -0.62238    -0.61422
    -0.61212    -0.60938    -0.60829    -0.60437    -0.60405    -0.60314
    -0.60021    -0.59943    -0.59701    -0.59689    -0.59494    -0.58906
    -0.58612    -0.57964    -0.57591    -0.56696    -0.56219    -0.56149
    -0.55614    -0.55585    -0.55582    -0.54709    -0.54651    -0.54637
    -0.54508    -0.54382    -0.54243    -0.54161    -0.54099    -0.53810
    -0.53645    -0.52210    -0.52057    -0.51726    -0.51593    -0.51570
    -0.51043    -0.50959    -0.50893    -0.50810    -0.50699    -0.50655
    -0.50379    -0.50350    -0.50333    -0.50214    -0.50075    -0.50033
    -0.49970    -0.49586    -0.49342    -0.49202    -0.49098    -0.49042
    -0.48790    -0.48559    -0.48495    -0.48483    -0.48415    -0.48167
    -0.48133    -0.48097    -0.48011    -0.47828    -0.47733    -0.47594
    -0.47554    -0.47447    -0.47238    -0.47100    -0.47074    -0.46684
    -0.46507    -0.46447    -0.46340    -0.46293    -0.46194    -0.45966
    -0.45868    -0.45652    -0.45631    -0.45483    -0.45358    -0.45245
    -0.45152    -0.45116    -0.45088    -0.45034    -0.44779    -0.44423
    -0.44273    -0.43521    -0.43142    -0.43072    -0.42989    -0.42968
    -0.42860    -0.42749    -0.42082    -0.41910    -0.41074    -0.40995
    -0.40680    -0.40654    -0.40612    -0.39862    -0.39487    -0.39319
    -0.39121    -0.39056    -0.38530    -0.38347    -0.38290    -0.38285
    -0.38067    -0.38058    -0.38011    -0.37583    -0.37495    -0.36364
    -0.33826    -0.32885    -0.32705    -0.31504    -0.31459    -0.31413
    -0.30964    -0.30680    -0.30630    -0.30183    -0.30032    -0.29995
    -0.29616    -0.27540    -0.06363    -0.01701    -0.01193    -0.00155
     0.00214     0.01189     0.01330     0.01626     0.02047     0.02080
 
  Peak memory usage:   1020 Mb
  
  end of program scf
   
 Time(scf)  user:     2438.4  user+sys:     2438.4  wallclock:     2557.9
  
  start of program sole
  
    SCRF                   solvation energy
  iteration          Hartrees            kcal/mol
     0               0.0000000            0.0000
     1              -0.0170619          -10.7065
     2              -0.0182244          -11.4360
  
  solvation energy not yet converged... 
  
  Peak memory usage:    812 Mb
  
  end of program sole
   
 Time(sole)  user:        0.2  user+sys:        0.2  wallclock:        0.1
  
  start of program ch
  
  gridpoints used for charge fit        16018
    out of a possible maximum of        16018
  
   Electrostatic potential fitting constrained to reproduce
     total charge:                yes
     dipole moment:               no 
     traceless quadrupole moment: no 
     traceless octapole moment:   no 
  
  Atomic charges from electrostatic potential: 
   
 Atom       C1           C2           C3           C4           C5      
 Charge   -0.07378     -0.06772     -0.22180      0.24330      0.12183
   
 Atom       C6           C7           C8           C9           C10     
 Charge   -0.26995     -0.39343     -0.08031      0.02422     -0.15106
   
 Atom       C11          O12          Si13         C14          C15     
 Charge    0.09069     -0.24462     -0.00599      0.07250      0.08916
   
 Atom       C16          C17          C18          C19          C20     
 Charge    0.26779     -0.16303     -0.49806     -0.26244      0.16714
   
 Atom       Si21         O22          C23          C24          P25     
 Charge   -0.13199     -0.29763     -0.16678     -0.11043      0.97943
   
 Atom       O26          O27          C28          C29          C30     
 Charge   -0.71611     -0.59295      0.10922     -0.03186      0.08382
   
 Atom       C31          C32          C33          C34          C35     
 Charge   -0.00145      0.25698      0.18692     -0.16917     -0.03265
   
 Atom       C36          C37          C38          C39          C40     
 Charge   -0.07743     -0.06638     -0.27274     -0.07195      0.00333
   
 Atom       C41          C42          C43          C44          C45     
 Charge   -0.14307     -0.17137     -0.19358     -0.16601     -0.26275
   
 Atom       C46          C47          C48          C49          C50     
 Charge   -0.18837     -0.10541     -0.19105     -0.17283     -0.11694
   
 Atom       C51          C52          C53          C54          C55     
 Charge   -0.18008     -0.08506     -0.15664     -0.12037     -0.23465
   
 Atom       C56          C57          C58          C59          C60     
 Charge   -0.09501     -0.17016     -0.17814     -0.12877     -0.15805
   
 Atom       C61          C62          C63          C64          C65     
 Charge   -0.14652     -0.16992     -0.08913     -0.18583     -0.12259
   
 Atom       C66          C67          C68          C69          C70     
 Charge    0.01157      0.11166     -0.14922     -0.12343     -0.09358
   
 Atom       N71          S72          O73          O74          C75     
 Charge   -0.20717      0.80695     -0.47486     -0.47457      0.58152
   
 Atom       C76          C77          C78          C79          N80     
 Charge   -0.46551      0.36434     -0.59701      0.50656     -0.73704
   
 Atom       N81          C82          C83          C84          C85     
 Charge   -0.12610      0.22004     -0.48595      0.06240     -0.19877
   
 Atom       H86          H87          H88          H89          H90     
 Charge    0.11426      0.16003      0.15809      0.19627      0.13483
   
 Atom       H91          H92          H93          H94          H95     
 Charge    0.12325      0.21869      0.15583      0.15049      0.13739
   
 Atom       H96          H97          H98          H99          H100    
 Charge    0.24467      0.15523      0.09087      0.10714      0.06750
   
 Atom       H101         H102         H103         H104         H105    
 Charge    0.18495      0.04557      0.08313      0.13651      0.14396
   
 Atom       H106         H107         H108         H109         H110    
 Charge    0.12316      0.12072      0.12883      0.14138      0.13150
   
 Atom       H111         H112         H113         H114         H115    
 Charge    0.13916      0.14143      0.13556      0.14705      0.13057
   
 Atom       H116         H117         H118         H119         H120    
 Charge    0.12578      0.09872      0.14197      0.12782      0.14968
   
 Atom       H121         H122         H123         H124         H125    
 Charge    0.14539      0.11604      0.12957      0.14291      0.14353
   
 Atom       H126         H127         H128         H129         H130    
 Charge    0.13332      0.15921      0.14247      0.08457      0.12528
   
 Atom       H131         H132         H133         H134         H135    
 Charge    0.14598      0.17809      0.16681      0.07392      0.22432
   
 Atom       H136         H137         H138         H139         H140    
 Charge    0.04808      0.34167      0.06880      0.23317      0.11716
   
 Atom       H141    
 Charge    0.16359
  
  sum of atomic charges:    -0.000000
   
 RMS Error   1.00E-03 hartrees
 
  Peak memory usage:    811 Mb
  
  end of program ch
   
 Time(ch)  user:       16.6  user+sys:       16.6  wallclock:       18.8
  
  start of program post
  
  Writing input files for PBF
  Peak memory usage:    758 Mb
  
  end of program post
   
 Time(post)  user:        0.7  user+sys:        0.7  wallclock:        1.2

  start of program pbf

Pbf Version 4.10

Molecular surface area:      793.60787   [A2]
Reaction field energy:       -19.21233   [kT]
  Peak memory usage: 719 Mb

  end of program pbf

 Time(pbf)  user:       17.0  user+sys:       17.3  wallclock:       17.5
  
  start of program solv
  
   number of surface charges from PBF   13320
   sum of surface charges     -0.00033
   
  nuclear repulsion energy.......   17441.277895762 hartrees
  Peak memory usage:    887 Mb
  
  end of program solv
   
 Time(solv)  user:       34.0  user+sys:       34.0  wallclock:       35.0
  
  start of program scf
  
 Energy computed with NOPS off.
  
       i  u  d  i  g                   
       t  p  i  c  r                                 RMS    maximum
       e  d  i  u  i                       energy  density   DIIS  
       r  t  s  t  d       total energy    change  change    error 
  
etot    1  N  N  1  U   -4710.07085128665           5.7E-06  1.3E-04
etot    2  N  N  1  U   -4710.07083689954 -1.4E-05  0.0E+00  0.0E+00
  
  
 Energy components, in hartrees:
   (A)  Total zero-electron terms....   17443.69783401202
   (B)    Nuclear-nuclear............   17441.27789576190
   (C)    Nuclear-solvent............       2.41993825012
   (E)  Total one-electron terms.....  -41223.86599322419
   (F)    Electron-nuclear...........  -45896.68663432497
   (G)    Electron-solvent...........      -2.45943823976
   (H)    Kinetic....................    4675.28007934055
   (I)  Total two-electron terms.....   19070.09732231262
   (J)    Coulomb....................   19643.44704595513
   (K)    Exchange+Correlation.......    -573.34972364251
   (L)  Electronic energy............  -22153.76867091157  (E+I)
   (N)  Total quantum mech. energy...   -4710.07083689954  (A+L)
   (O)  Gas phase energy.............   -4710.03262940374
   (P)  Solution phase energy........   -4710.05108690472  (Q+R+S)
   (Q)    Total solute energy........   -4710.03133690990  (N-C-G)
   (R)    Total solvent energy.......      -0.01974999482  (C/2+G/2)
   (S)    Solute cavity energy.......       0.00000000000
   (U)  Reorganization energy........       0.00129249384  (Q-O)
   (V)  Solvation energy.............      -0.01845750098  (P-O)
  
 SCFE:  Solution phase energy: DFT(m06-2x)      -4710.05108690472 hartrees
        SCF iterations:   2
  
 
 HOMO energy:    -0.25198
 LUMO energy:    -0.06490
 
  Orbital energies (hartrees): 
   -90.17166   -78.18607   -67.01246   -67.00687   -19.67723   -19.67454
   -19.65544   -19.64716   -19.59264   -19.58802   -14.81659   -14.80875
   -14.78855   -10.66220   -10.62908   -10.62237   -10.61683   -10.60449
   -10.60255   -10.59024   -10.58037   -10.57990   -10.57866   -10.57450
   -10.57095   -10.56984   -10.56928   -10.56812   -10.56711   -10.56333
   -10.56191   -10.56149   -10.56146   -10.55981   -10.55976   -10.55896
   -10.55894   -10.55479   -10.55402   -10.55391   -10.55304   -10.55280
   -10.55263   -10.55240   -10.55229   -10.55162   -10.55157   -10.55106
   -10.55073   -10.55061   -10.55050   -10.55016   -10.55011   -10.54914
   -10.54895   -10.54854   -10.54854   -10.54806   -10.54803   -10.54740
   -10.54652   -10.54615   -10.54554   -10.54529   -10.54519   -10.54511
   -10.54495   -10.54484   -10.54441   -10.54433   -10.54257   -10.54161
   -10.54137   -10.54116   -10.53907   -10.53748   -10.53747   -10.53642
   -10.53597   -10.53571   -10.53388   -10.53251   -10.53160   -10.53009
   -10.52428    -8.48184    -6.96516    -6.40417    -6.40319    -6.40212
    -5.54335    -5.53761    -5.08380    -5.08261    -5.08099    -3.85316
    -3.85283    -3.85264    -3.84757    -3.84712    -3.84673    -1.24670
    -1.21335    -1.16987    -1.13616    -1.10130    -1.08753    -1.07887
    -1.06313    -1.04140    -0.98020    -0.97036    -0.96575    -0.94797
    -0.94387    -0.94210    -0.93973    -0.93809    -0.93162    -0.91963
    -0.91748    -0.90873    -0.89349    -0.88878    -0.88564    -0.87504
    -0.85220    -0.85090    -0.84466    -0.84130    -0.83982    -0.83634
    -0.83392    -0.83284    -0.83139    -0.83030    -0.82941    -0.82839
    -0.82715    -0.82558    -0.82374    -0.82324    -0.82156    -0.81893
    -0.79792    -0.79771    -0.75605    -0.73299    -0.73198    -0.71174
    -0.70486    -0.69868    -0.69613    -0.69334    -0.68789    -0.68467
    -0.68075    -0.67704    -0.67556    -0.67432    -0.67356    -0.67175
    -0.67069    -0.66899    -0.66348    -0.66223    -0.66155    -0.66142
    -0.65985    -0.65583    -0.65404    -0.64699    -0.64347    -0.63784
    -0.61936    -0.61293    -0.60939    -0.60286    -0.60110    -0.59624
    -0.58250    -0.58050    -0.57964    -0.57813    -0.57613    -0.57308
    -0.57179    -0.56487    -0.56409    -0.55948    -0.55244    -0.54558
    -0.54557    -0.53797    -0.53746    -0.53445    -0.53063    -0.52522
    -0.52363    -0.52194    -0.52017    -0.51645    -0.51500    -0.51451
    -0.51389    -0.50989    -0.50798    -0.50668    -0.50504    -0.50275
    -0.50055    -0.49922    -0.49840    -0.49672    -0.49616    -0.49508
    -0.49427    -0.49390    -0.49154    -0.48936    -0.48916    -0.48708
    -0.48629    -0.48341    -0.48287    -0.48167    -0.47969    -0.47929
    -0.47743    -0.47649    -0.47009    -0.46824    -0.46804    -0.46436
    -0.46070    -0.45626    -0.45347    -0.45191    -0.44975    -0.44823
    -0.44806    -0.44643    -0.44263    -0.43880    -0.43079    -0.43009
    -0.42855    -0.42762    -0.42660    -0.42319    -0.42204    -0.42003
    -0.41873    -0.41785    -0.41392    -0.41260    -0.40602    -0.40543
    -0.40317    -0.40044    -0.39788    -0.39628    -0.39338    -0.39255
    -0.39041    -0.38904    -0.38806    -0.38762    -0.38730    -0.38442
    -0.38289    -0.37884    -0.37573    -0.37491    -0.36988    -0.35728
    -0.35387    -0.34992    -0.34718    -0.34455    -0.34394    -0.34290
    -0.34197    -0.34101    -0.33534    -0.33226    -0.33050    -0.32530
    -0.32303    -0.31569    -0.31279    -0.30536    -0.30310    -0.30269
    -0.30153    -0.29994    -0.29934    -0.29678    -0.29409    -0.28910
    -0.28706    -0.28664    -0.28644    -0.28323    -0.28182    -0.27457
    -0.27153    -0.25198    -0.06490    -0.01720    -0.01260    -0.00154
     0.00206     0.01151     0.01291     0.01609     0.02011     0.02055
 
  Peak memory usage:   1020 Mb
  
  end of program scf
   
 Time(scf)  user:     2437.8  user+sys:     2437.8  wallclock:     2553.2
  
  start of program sole
  
    SCRF                   solvation energy
  iteration          Hartrees            kcal/mol
     0               0.0000000            0.0000
     1              -0.0170619          -10.7065
     2              -0.0182244          -11.4360
     3              -0.0184575          -11.5823
  
  solvation energy not yet converged... 
  
  Peak memory usage:    812 Mb
  
  end of program sole
   
 Time(sole)  user:        0.1  user+sys:        0.1  wallclock:        0.4
  
  start of program ch
  
  gridpoints used for charge fit        16018
    out of a possible maximum of        16018
  
   Electrostatic potential fitting constrained to reproduce
     total charge:                yes
     dipole moment:               no 
     traceless quadrupole moment: no 
     traceless octapole moment:   no 
  
  Atomic charges from electrostatic potential: 
   
 Atom       C1           C2           C3           C4           C5      
 Charge   -0.07312     -0.06886     -0.22214      0.24379      0.12083
   
 Atom       C6           C7           C8           C9           C10     
 Charge   -0.27011     -0.39397     -0.08069      0.02530     -0.15195
   
 Atom       C11          O12          Si13         C14          C15     
 Charge    0.09092     -0.24499     -0.00366      0.07293      0.08883
   
 Atom       C16          C17          C18          C19          C20     
 Charge    0.26757     -0.16326     -0.49621     -0.26127      0.16712
   
 Atom       Si21         O22          C23          C24          P25     
 Charge   -0.13064     -0.29888     -0.16718     -0.11175      0.98163
   
 Atom       O26          O27          C28          C29          C30     
 Charge   -0.71796     -0.59284      0.10988     -0.03034      0.08361
   
 Atom       C31          C32          C33          C34          C35     
 Charge    0.00058      0.25813      0.18900     -0.16926     -0.02993
   
 Atom       C36          C37          C38          C39          C40     
 Charge   -0.07783     -0.06630     -0.27270     -0.06984      0.00200
   
 Atom       C41          C42          C43          C44          C45     
 Charge   -0.14126     -0.17072     -0.19358     -0.16676     -0.26115
   
 Atom       C46          C47          C48          C49          C50     
 Charge   -0.18925     -0.10569     -0.19362     -0.17313     -0.11761
   
 Atom       C51          C52          C53          C54          C55     
 Charge   -0.18046     -0.08568     -0.15723     -0.12055     -0.23631
   
 Atom       C56          C57          C58          C59          C60     
 Charge   -0.09554     -0.17054     -0.17775     -0.12997     -0.15881
   
 Atom       C61          C62          C63          C64          C65     
 Charge   -0.14718     -0.17101     -0.09006     -0.18796     -0.12105
   
 Atom       C66          C67          C68          C69          C70     
 Charge    0.01010      0.11666     -0.15145     -0.12530     -0.08633
   
 Atom       N71          S72          O73          O74          C75     
 Charge   -0.20715      0.80995     -0.47616     -0.47733      0.58623
   
 Atom       C76          C77          C78          C79          N80     
 Charge   -0.46665      0.36217     -0.60108      0.50601     -0.73463
   
 Atom       N81          C82          C83          C84          C85     
 Charge   -0.12586      0.21735     -0.48803      0.06123     -0.19711
   
 Atom       H86          H87          H88          H89          H90     
 Charge    0.11393      0.16020      0.15822      0.19597      0.13500
   
 Atom       H91          H92          H93          H94          H95     
 Charge    0.12335      0.21818      0.15561      0.15059      0.13757
   
 Atom       H96          H97          H98          H99          H100    
 Charge    0.24514      0.15492      0.09057      0.10699      0.06762
   
 Atom       H101         H102         H103         H104         H105    
 Charge    0.18474      0.04450      0.08312      0.13617      0.14359
   
 Atom       H106         H107         H108         H109         H110    
 Charge    0.12321      0.12049      0.12831      0.14135      0.13154
   
 Atom       H111         H112         H113         H114         H115    
[...]
 
  Peak memory usage:    811 Mb
  
  end of program ch
   
 Time(ch)  user:       16.8  user+sys:       16.8  wallclock:       18.9
  
  start of program post
  
  Writing input files for PBF
  Peak memory usage:    758 Mb
  
  end of program post
   
 Time(post)  user:        0.8  user+sys:        0.8  wallclock:        1.2

  start of program pbf

Pbf Version 4.10

Molecular surface area:      793.60787   [A2]
Reaction field energy:       -19.28721   [kT]
  Peak memory usage: 719 Mb

  end of program pbf

 Time(pbf)  user:       17.2  user+sys:       17.6  wallclock:       17.8
  
  start of program solv
  
   number of surface charges from PBF   13320
   sum of surface charges     -0.00034
   
  nuclear repulsion energy.......   17441.277895762 hartrees
  Peak memory usage:    887 Mb
  
  end of program solv
   
 Time(solv)  user:       33.9  user+sys:       33.9  wallclock:       35.3
  
  start of program scf
  
 Energy computed with NOPS off.
  
       i  u  d  i  g                   
       t  p  i  c  r                                 RMS    maximum
       e  d  i  u  i                       energy  density   DIIS  
       r  t  s  t  d       total energy    change  change    error 
  
etot    1  N  N  1  U   -4710.07086491832           1.4E-05  3.3E-04
etot    2  N  Y  1  U   -4710.07074073942 -1.2E-04  9.4E-06  5.9E-04
etot    3  N  Y  1  U   -4710.07092604219  1.9E-04  3.7E-07  2.5E-05
etot    4  N  N  1  U   -4710.07092627355  2.3E-07  0.0E+00  0.0E+00
  
  
 Energy components, in hartrees:
   (A)  Total zero-electron terms....   17443.71092743484
   (B)    Nuclear-nuclear............   17441.27789576190
   (C)    Nuclear-solvent............       2.43303167294
   (E)  Total one-electron terms.....  -41224.04980450024
   (F)    Electron-nuclear...........  -45896.86544295579
   (G)    Electron-solvent...........      -2.47271278413
   (H)    Kinetic....................    4675.28835123968
   (I)  Total two-electron terms.....   19070.26795079185
   (J)    Coulomb....................   19643.61857280962
   (K)    Exchange+Correlation.......    -573.35062201777
   (L)  Electronic energy............  -22153.78185370839  (E+I)
   (N)  Total quantum mech. energy...   -4710.07092627355  (A+L)
   (O)  Gas phase energy.............   -4710.03262940374
   (P)  Solution phase energy........   -4710.05108571796  (Q+R+S)
   (Q)    Total solute energy........   -4710.03124516236  (N-C-G)
   (R)    Total solvent energy.......      -0.01984055559  (C/2+G/2)
   (S)    Solute cavity energy.......       0.00000000000
   (U)  Reorganization energy........       0.00138424138  (Q-O)
   (V)  Solvation energy.............      -0.01845631422  (P-O)
  
 SCFE:  Solution phase energy: DFT(m06-2x)      -4710.05108571796 hartrees
        SCF iterations:   4
  
 
 HOMO energy:    -0.25194
 LUMO energy:    -0.06413
 
  Orbital energies (hartrees): 
   -90.17012   -78.18573   -67.01179   -67.00600   -19.67743   -19.67401
   -19.65439   -19.64850   -19.59109   -19.58856   -14.81402   -14.80774
   -14.78604   -10.65969   -10.62691   -10.62239   -10.61663   -10.60557
   -10.60293   -10.58905   -10.58128   -10.57853   -10.57836   -10.57615
   -10.57106   -10.56968   -10.56929   -10.56841   -10.56741   -10.56420
   -10.56235   -10.56204   -10.56175   -10.55999   -10.55983   -10.55858
   -10.55791   -10.55471   -10.55398   -10.55395   -10.55358   -10.55280
   -10.55268   -10.55258   -10.55215   -10.55179   -10.55135   -10.55132
   -10.55126   -10.55076   -10.55071   -10.55041   -10.55034   -10.54896
   -10.54892   -10.54882   -10.54860   -10.54788   -10.54784   -10.54776
   -10.54653   -10.54594   -10.54581   -10.54562   -10.54559   -10.54479
   -10.54465   -10.54428   -10.54396   -10.54356   -10.54338   -10.54134
   -10.54095   -10.54039   -10.53895   -10.53676   -10.53645   -10.53597
   -10.53548   -10.53502   -10.53378   -10.53170   -10.53056   -10.52891
   -10.52332    -8.48039    -6.96481    -6.40271    -6.40174    -6.40066
    -5.54269    -5.53676    -5.08345    -5.08226    -5.08065    -3.85250
    -3.85218    -3.85199    -3.84672    -3.84627    -3.84589    -1.24591
    -1.21313    -1.16973    -1.13567    -1.10091    -1.08707    -1.07786
    -1.06155    -1.04085    -0.98029    -0.96989    -0.96576    -0.94794
    -0.94380    -0.94189    -0.93947    -0.93799    -0.93118    -0.91972
    -0.91775    -0.90869    -0.89299    -0.88870    -0.88554    -0.87454
    -0.85225    -0.85063    -0.84459    -0.84108    -0.83979    -0.83626
    -0.83371    -0.83263    -0.83126    -0.83009    -0.82931    -0.82840
    -0.82708    -0.82535    -0.82368    -0.82308    -0.82127    -0.81849
    -0.79787    -0.79700    -0.75535    -0.73283    -0.73181    -0.71119
    -0.70473    -0.69863    -0.69602    -0.69296    -0.68784    -0.68458
    -0.68017    -0.67701    -0.67532    -0.67425    -0.67330    -0.67156
    -0.67046    -0.66889    -0.66339    -0.66211    -0.66134    -0.66111
    -0.65970    -0.65566    -0.65368    -0.64670    -0.64320    -0.63754
    -0.61923    -0.61243    -0.60923    -0.60246    -0.60071    -0.59622
    -0.58252    -0.58041    -0.57947    -0.57786    -0.57607    -0.57299
    -0.57156    -0.56487    -0.56354    -0.55940    -0.55231    -0.54546
    -0.54514    -0.53776    -0.53720    -0.53408    -0.53043    -0.52512
    -0.52351    -0.52160    -0.52013    -0.51621    -0.51493    -0.51434
    -0.51376    -0.50980    -0.50778    -0.50661    -0.50492    -0.50247
    -0.50042    -0.49877    -0.49818    -0.49653    -0.49597    -0.49495
    -0.49410    -0.49355    -0.49149    -0.48925    -0.48892    -0.48688
    -0.48625    -0.48355    -0.48283    -0.48166    -0.47935    -0.47905
    -0.47711    -0.47627    -0.46990    -0.46821    -0.46784    -0.46439
    -0.46065    -0.45635    -0.45341    -0.45180    -0.44959    -0.44806
    -0.44775    -0.44638    -0.44242    -0.43858    -0.43067    -0.42961
    -0.42840    -0.42743    -0.42646    -0.42304    -0.42175    -0.41987
    -0.41858    -0.41761    -0.41354    -0.41204    -0.40579    -0.40493
    -0.40290    -0.40035    -0.39785    -0.39625    -0.39312    -0.39241
    -0.39023    -0.38887    -0.38782    -0.38740    -0.38695    -0.38418
    -0.38258    -0.37844    -0.37549    -0.37468    -0.36968    -0.35716
    -0.35358    -0.34960    -0.34682    -0.34417    -0.34366    -0.34254
    -0.34155    -0.34057    -0.33488    -0.33199    -0.33011    -0.32529
    -0.32288    -0.31543    -0.31230    -0.30534    -0.30300    -0.30245
    -0.30139    -0.29980    -0.29915    -0.29655    -0.29395    -0.28898
    -0.28685    -0.28643    -0.28613    -0.28288    -0.28146    -0.27406
    -0.27157    -0.25194    -0.06413    -0.01714    -0.01221    -0.00155
     0.00212     0.01170     0.01310     0.01622     0.02033     0.02066
 
  Peak memory usage:   1020 Mb
  
  end of program scf
   
 Time(scf)  user:     6387.0  user+sys:     6387.0  wallclock:     6512.5
  
  start of program sole
  
    SCRF                   solvation energy
  iteration          Hartrees            kcal/mol
     0               0.0000000            0.0000
     1              -0.0170619          -10.7065
     2              -0.0182244          -11.4360
     3              -0.0184575          -11.5823
     4              -0.0182466          -11.4499
     5              -0.0184563          -11.5815
  
  solvation energy not yet converged... 
  
  Peak memory usage:    812 Mb
  
  end of program sole
   
 Time(sole)  user:        0.1  user+sys:        0.1  wallclock:        0.1
  
  start of program ch
  
  gridpoints used for charge fit        16018
    out of a possible maximum of        16018
  
   Electrostatic potential fitting constrained to reproduce
     total charge:                yes
     dipole moment:               no 
     traceless quadrupole moment: no 
     traceless octapole moment:   no 
  
  Atomic charges from electrostatic potential: 
   
 Atom       C1           C2           C3           C4           C5      
 Charge   -0.07345     -0.06813     -0.22200      0.24356      0.12141
   
 Atom       C6           C7           C8           C9           C10     
 Charge   -0.27005     -0.39366     -0.08055      0.02468     -0.15127
   
 Atom       C11          O12          Si13         C14          C15     
 Charge    0.09078     -0.24491     -0.00498      0.07264      0.08904
   
 Atom       C16          C17          C18          C19          C20     
 Charge    0.26781     -0.16304     -0.49752     -0.26210      0.16717
   
 Atom       Si21         O22          C23          C24          P25     
 Charge   -0.13145     -0.29820     -0.16701     -0.11092      0.98062
   
 Atom       O26          O27          C28          C29          C30     
 Charge   -0.71691     -0.59295      0.10946     -0.03131      0.08357
   
 Atom       C31          C32          C33          C34          C35     
 Charge   -0.00070      0.25745      0.18774     -0.16926     -0.03159
   
 Atom       C36          C37          C38          C39          C40     
 Charge   -0.07750     -0.06647     -0.27260     -0.07119      0.00293
   
 Atom       C41          C42          C43          C44          C45     
 Charge   -0.14244     -0.17095     -0.19362     -0.16627     -0.26225
   
 Atom       C46          C47          C48          C49          C50     
 Charge   -0.18854     -0.10550     -0.19215     -0.17299     -0.11719
   
 Atom       C51          C52          C53          C54          C55     
 Charge   -0.18021     -0.08534     -0.15685     -0.12034     -0.23527
   
 Atom       C56          C57          C58          C59          C60     
 Charge   -0.09522     -0.17033     -0.17808     -0.12927     -0.15832
   
 Atom       C61          C62          C63          C64          C65     
 Charge   -0.14677     -0.17038     -0.08943     -0.18678     -0.12183
   
 Atom       C66          C67          C68          C69          C70     
 Charge    0.01037      0.11402     -0.15020     -0.12399     -0.09025
   
 Atom       N71          S72          O73          O74          C75     
 Charge   -0.20719      0.80800     -0.47570     -0.47558      0.58358
   
 Atom       C76          C77          C78          C79          N80     
 Charge   -0.46601      0.36372     -0.59879      0.50661     -0.73672
   
 Atom       N81          C82          C83          C84          C85     
 Charge   -0.12618      0.21958     -0.48696      0.06200     -0.19821
   
 Atom       H86          H87          H88          H89          H90     
 Charge    0.11411      0.16016      0.15816      0.19611      0.13497
   
 Atom       H91          H92          H93          H94          H95     
 Charge    0.12326      0.21845      0.15571      0.15060      0.13753
   
 Atom       H96          H97          H98          H99          H100    
 Charge    0.24474      0.15511      0.09063      0.10704      0.06751
   
 Atom       H101         H102         H103         H104         H105    
 Charge    0.18484      0.04511      0.08308      0.13631      0.14375
   
 Atom       H106         H107         H108         H109         H110    
 Charge    0.12309      0.12057      0.12851      0.14136      0.13162
   
 Atom       H111         H112         H113         H114         H115    
 Charge    0.13943      0.14150      0.13564      0.14706      0.13065
   
 Atom       H116         H117         H118         H119         H120    
 Charge    0.12580      0.09846      0.14210      0.12793      0.14968
   
 Atom       H121         H122         H123         H124         H125    
 Charge    0.14531      0.11614      0.12951      0.14301      0.14365
   
 Atom       H126         H127         H128         H129         H130    
 Charge    0.13336      0.15947      0.14216      0.08395      0.12531
   
 Atom       H131         H132         H133         H134         H135    
 Charge    0.14626      0.17755      0.16683      0.07401      0.22496
   
 Atom       H136         H137         H138         H139         H140    
 Charge    0.04817      0.34199      0.06857      0.23359      0.11724
   
 Atom       H141    
 Charge    0.16342
  
  sum of atomic charges:    -0.000000
   
 RMS Error   1.00E-03 hartrees
 
  Peak memory usage:    811 Mb
  
  end of program ch
   
 Time(ch)  user:       15.5  user+sys:       15.5  wallclock:       16.6
  
  start of program post
  
  Writing input files for PBF
  Peak memory usage:    758 Mb
  
  end of program post
   
 Time(post)  user:        0.6  user+sys:        0.6  wallclock:        3.5

  start of program pbf

Pbf Version 4.10

Molecular surface area:      793.60787   [A2]
Reaction field energy:       -19.18927   [kT]
  Peak memory usage: 719 Mb

  end of program pbf

 Time(pbf)  user:       13.0  user+sys:       13.1  wallclock:       13.1
  
  start of program solv
  
   number of surface charges from PBF   13320
   sum of surface charges     -0.00034
   
  nuclear repulsion energy.......   17441.277895762 hartrees
  Peak memory usage:    887 Mb
  
  end of program solv
   
 Time(solv)  user:       30.1  user+sys:       30.1  wallclock:       30.2
  
  start of program scf
  
 Energy computed with NOPS off.
  
       i  u  d  i  g                   
       t  p  i  c  r                                 RMS    maximum
       e  d  i  u  i                       energy  density   DIIS  
       r  t  s  t  d       total energy    change  change    error 
  
etot    1  N  N  1  U   -4710.07084175815           7.8E-07  1.9E-05
etot    2  N  N  1  U   -4710.07084178549  2.7E-08  0.0E+00  0.0E+00
  
  
 Energy components, in hartrees:
   (A)  Total zero-electron terms....   17443.69250130175
   (B)    Nuclear-nuclear............   17441.27789576190
   (C)    Nuclear-solvent............       2.41460553985
   (E)  Total one-electron terms.....  -41224.01285690820
   (F)    Electron-nuclear...........  -45896.84666212056
   (G)    Electron-solvent...........      -2.45417345652
   (H)    Kinetic....................    4675.28797866888
   (I)  Total two-electron terms.....   19070.24951382096
   (J)    Coulomb....................   19643.60007380652
   (K)    Exchange+Correlation.......    -573.35055998556
   (L)  Electronic energy............  -22153.76334308724  (E+I)
   (N)  Total quantum mech. energy...   -4710.07084178549  (A+L)
   (O)  Gas phase energy.............   -4710.03262940374
   (P)  Solution phase energy........   -4710.05105782715  (Q+R+S)
   (Q)    Total solute energy........   -4710.03127386882  (N-C-G)
   (R)    Total solvent energy.......      -0.01978395833  (C/2+G/2)
   (S)    Solute cavity energy.......       0.00000000000
   (U)  Reorganization energy........       0.00135553492  (Q-O)
   (V)  Solvation energy.............      -0.01842842341  (P-O)
  
 SCFE:  Solution phase energy: DFT(m06-2x)      -4710.05105782715 hartrees
        SCF iterations:   2
  
 
 HOMO energy:    -0.25192
 LUMO energy:    -0.06417
 
  Orbital energies (hartrees): 
   -90.17018   -78.18571   -67.01181   -67.00604   -19.67734   -19.67401
   -19.65459   -19.64835   -19.59115   -19.58847   -14.81404   -14.80776
   -14.78639   -10.65982   -10.62708   -10.62233   -10.61659   -10.60554
   -10.60293   -10.58911   -10.58109   -10.57848   -10.57846   -10.57597
   -10.57112   -10.56967   -10.56938   -10.56841   -10.56740   -10.56414
   -10.56233   -10.56202   -10.56172   -10.55997   -10.55980   -10.55861
   -10.55794   -10.55468   -10.55400   -10.55397   -10.55365   -10.55276
   -10.55267   -10.55257   -10.55217   -10.55176   -10.55137   -10.55127
   -10.55123   -10.55072   -10.55067   -10.55037   -10.55030   -10.54895
   -10.54893   -10.54876   -10.54858   -10.54787   -10.54784   -10.54770
   -10.54651   -10.54585   -10.54581   -10.54556   -10.54553   -10.54478
   -10.54467   -10.54426   -10.54405   -10.54361   -10.54326   -10.54137
   -10.54091   -10.54043   -10.53891   -10.53675   -10.53652   -10.53593
   -10.53549   -10.53506   -10.53372   -10.53172   -10.53062   -10.52900
   -10.52333    -8.48044    -6.96479    -6.40277    -6.40180    -6.40072
    -5.54272    -5.53679    -5.08343    -5.08224    -5.08063    -3.85253
    -3.85221    -3.85201    -3.84676    -3.84631    -3.84592    -1.24594
    -1.21310    -1.16968    -1.13569    -1.10092    -1.08706    -1.07797
    -1.06159    -1.04084    -0.98028    -0.96992    -0.96574    -0.94794
    -0.94380    -0.94188    -0.93946    -0.93798    -0.93117    -0.91970
    -0.91770    -0.90867    -0.89302    -0.88869    -0.88556    -0.87457
    -0.85223    -0.85065    -0.84458    -0.84107    -0.83979    -0.83625
    -0.83372    -0.83263    -0.83125    -0.83011    -0.82931    -0.82838
    -0.82706    -0.82535    -0.82367    -0.82307    -0.82125    -0.81848
    -0.79785    -0.79703    -0.75538    -0.73282    -0.73181    -0.71120
    -0.70471    -0.69861    -0.69601    -0.69298    -0.68783    -0.68458
    -0.68020    -0.67700    -0.67533    -0.67425    -0.67330    -0.67155
    -0.67045    -0.66888    -0.66339    -0.66213    -0.66133    -0.66111
    -0.65969    -0.65565    -0.65367    -0.64671    -0.64319    -0.63756
    -0.61921    -0.61246    -0.60923    -0.60246    -0.60072    -0.59620
    -0.58252    -0.58040    -0.57947    -0.57787    -0.57606    -0.57297
    -0.57154    -0.56485    -0.56356    -0.55939    -0.55229    -0.54545
    -0.54514    -0.53776    -0.53720    -0.53409    -0.53043    -0.52511
    -0.52352    -0.52162    -0.52012    -0.51621    -0.51491    -0.51434
    -0.51376    -0.50979    -0.50776    -0.50661    -0.50491    -0.50247
    -0.50042    -0.49879    -0.49817    -0.49652    -0.49596    -0.49494
    -0.49411    -0.49356    -0.49148    -0.48924    -0.48892    -0.48687
    -0.48625    -0.48351    -0.48283    -0.48165    -0.47937    -0.47905
    -0.47711    -0.47626    -0.46989    -0.46824    -0.46782    -0.46439
    -0.46066    -0.45633    -0.45340    -0.45179    -0.44958    -0.44805
    -0.44776    -0.44637    -0.44242    -0.43857    -0.43066    -0.42963
    -0.42839    -0.42743    -0.42644    -0.42303    -0.42176    -0.41986
    -0.41857    -0.41760    -0.41354    -0.41206    -0.40579    -0.40496
    -0.40290    -0.40034    -0.39783    -0.39625    -0.39312    -0.39241
    -0.39022    -0.38886    -0.38782    -0.38740    -0.38695    -0.38418
    -0.38258    -0.37843    -0.37548    -0.37467    -0.36966    -0.35715
    -0.35358    -0.34960    -0.34682    -0.34419    -0.34367    -0.34257
    -0.34156    -0.34058    -0.33489    -0.33198    -0.33011    -0.32528
    -0.32290    -0.31545    -0.31233    -0.30535    -0.30299    -0.30245
    -0.30138    -0.29980    -0.29914    -0.29655    -0.29394    -0.28896
    -0.28684    -0.28642    -0.28612    -0.28288    -0.28144    -0.27409
    -0.27155    -0.25192    -0.06417    -0.01712    -0.01222    -0.00153
     0.00213     0.01171     0.01310     0.01621     0.02032     0.02067
 
  Peak memory usage:   1020 Mb
  
  end of program scf
   
 Time(scf)  user:     2068.0  user+sys:     2068.0  wallclock:     2085.8
  
  start of program sole
  
    SCRF                   solvation energy
  iteration          Hartrees            kcal/mol
     0               0.0000000            0.0000
     1              -0.0170619          -10.7065
     2              -0.0182244          -11.4360
     3              -0.0184575          -11.5823
     4              -0.0182466          -11.4499
     5              -0.0184563          -11.5815
     6              -0.0184284          -11.5640
  
  stopping: solvation energy converged
  
  iterations:   6    sfinal:    -11.5640 kcal/mol
  
  Peak memory usage:    812 Mb
  
  end of program sole
   
 Time(sole)  user:        0.1  user+sys:        0.1  wallclock:        0.1
  
  start of program post
  
  Writing input files for PBF
  Peak memory usage:    758 Mb
  
  end of program post
   
 Time(post)  user:        0.6  user+sys:        0.6  wallclock:        0.9

 Total cpu seconds     user:   51707.409   user+sys:   51707.409
  
 Total elapsed time:    54289 seconds

Job Toru-SiPh3-Type-II-E-1-scan-unrestrained-SPE completed on tethys at Fri Apr  7 03:14:41 2017
