Job Toru-SiPh3-Type-II-E-1-scan-unrestrained-IRC-max-disp-optimise-2.1-SPE started on tethys at Fri Mar 10 14:11:20 2017
jobid: tethys-0-58c2b406

  +--------------------------------------------------------------------+
  |  Jaguar version 9.5, release  11                                   |
  |                                                                    |
  |  Copyright Schrodinger, Inc.                                       |
  |  All Rights Reserved.                                              |
  |                                                                    |
  |  The following have contributed to Jaguar (listed alphabetically): |
  |  Mike Beachy, Art Bochevarov, Dale Braden, Yixiang Cao,            |
  |  Chris Cortis, Rich Friesner, Bill Goddard, Hod Greeley,           |
  |  Tom Hughes, Leif Jacobson, Jean-Marc Langlois,                    |
  |  Daniel Mainz, Rob Murphy, Dean Philipp, Tom Pollard,              |
  |  Murco Ringnalda, Mark Watson, Haoyu Yu.                           |
  |                                                                    |
  |  Use of this program should be acknowledged in publications as:    |
  |                                                                    |
  |  Jaguar, version 9.5, Schrodinger, Inc., New York, NY, 2017.       |
  |                                                                    |
  |  A. D. Bochevarov, E. Harder, T. F. Hughes, J. R. Greenwood,       |
  |  D. A. Braden, D. M. Philipp, D. Rinaldo, M. D. Halls,             |
  |  J. Zhang, R. A. Friesner, "Jaguar: A High-Performance Quantum     |
  |  Chemistry Software Program with Strengths in Life and Materials   |
  |  Sciences", Int. J. Quantum Chem., 2013, 113(18), 2110-2142.       |
  +--------------------------------------------------------------------+
  
  start of program pre
  
  Job name: 
 Toru-SiPh3-Type-II-E-1-scan-unrestrained-IRC-max-disp-optimise-2.1-SPE
  Executables used: /usr/local/shared/schrodinger/current/jaguar-v9.5/bin/Linux-x86_64
  Temporary files : /scratch/ab2144/Toru-SiPh3-Type-II-E-1-scan-unrestrained-IRC-max-disp-optimise-2.1-SPE
  Maestro file (input):  Toru-SiPh3-Type-II-E-1-scan-unrestrained-IRC-max-disp-optimise-2.1-SPE.mae
  Maestro file (output): Toru-SiPh3-Type-II-E-1-scan-unrestrained-IRC-max-disp-optimise-2.1-SPE.01.mae
  
  basis set:             6-31g**                         
  net molecular charge:    0
  multiplicity:            1
  
  keygrid settings 
    wispc.....   7.500E-01
    ldens.....   0
    denspc....   7.500E-01
  
   grid     daf set  nls  grid set  Q type
  ------    -------  ---  --------  ------
  coarse       1      1       1        1
  medium       2      2       2        1
  fine         3      2       3        0
  ultrafine    4      2       4        1
  charge       0      1      -1        1
  gradient     5      2       4        1
  density      0      1       0        0
  DFT-fine     0      1     -13        0
  DFT-med.     0      1     -13        0
  DFT-grad     0      1     -13        0
  DFT-der2     0      1       0        0
  DFT-cphf     0      1       0        0
  LMP2-enrg    4      2       4        1
  LMP2-grad    5      2       2        1
  DFT-cphf2    0      1       0        0
  PBF-dens     0      1       0        0
  plotting     0      1       0        0
  Rel-grad     0      1     -17        0
  
  idftgrdm  100
  ndftgrdm   50    0    0
  idftgrdf  111
  ndftgrdf   85    0    0
  idftgrdg  111
  ndftgrdg   80    3    0
  idftgrdu  433
  ndftgrdu  105    0    0
  idftgrdd  433
  ndftgrdd  105    0    0
  idftgrdc  433
  ndftgrdc   26    0    0
  idftgrdp  433
  ndftgrdp   18    0    0
  
  number of basis functions....         1571
  
 Input geometry:
                                   angstroms
  atom               x                 y                 z
  C1            0.0414000000      5.4641000000     -0.8351000000 
  C2            1.0379000000      4.3898000000     -0.5695000000 
  C3            0.4095000000      6.5886000000     -1.4600000000 
  C4            2.3056000000      4.5500000000     -1.0077000000 
  C5            0.6548000000      3.1218000000      0.1214000000 
  C6            2.7044000000      5.8015000000     -1.6927000000 
  C7            3.2965000000      3.4763000000     -0.8096000000 
  C8            1.8051000000      6.7687000000     -1.9023000000 
  C9            1.5254000000      2.0926000000      0.1608000000 
  C10          -0.6799000000      2.9701000000      0.7481000000 
  C11           2.9430000000      2.3127000000     -0.2424000000 
  O12           1.1428000000      0.8946000000      0.7100000000 
  Si13          4.2595000000      1.0173000000      0.0280000000 
  C14          -1.1038000000      3.7915000000      1.7365000000 
  C15          -1.6035000000      1.9388000000      0.1968000000 
  C16          -2.5281000000      3.7638000000      2.1485000000 
  C17          -0.2095000000      4.7533000000      2.4301000000 
  C18          -3.3917000000      2.9540000000      1.5254000000 
  C19          -2.9776000000      4.6848000000      3.2113000000 
  C20          -2.9248000000      2.0260000000      0.4700000000 
  Si21         -4.2168000000      0.9977000000     -0.4024000000 
  O22          -1.1282000000      1.0004000000     -0.6914000000 
  C23          -0.6877000000      5.5593000000      3.3854000000 
  C24          -2.1108000000      5.5256000000      3.7863000000 
  P25           0.0752000000      0.0273000000     -0.1687000000 
  O26           0.6368000000     -0.7072000000     -1.3291000000 
  O27          -0.4847000000     -0.8508000000      1.0259000000 
  C28           4.3826000000     -0.0509000000     -1.4941000000 
  C29           5.8711000000      1.9146000000      0.3005000000 
  C30           3.9077000000      0.0218000000      1.5653000000 
  C31          -3.7381000000      0.7573000000     -2.1946000000 
  C32          -4.4426000000     -0.5968000000      0.5366000000 
  C33          -5.8008000000      1.9766000000     -0.3884000000 
  C34           3.5036000000      0.0837000000     -2.5024000000 
  C35           5.5091000000     -1.0060000000     -1.6370000000 
  C36           6.0703000000      2.6152000000      1.4302000000 
  C37           6.9232000000      1.9158000000     -0.7472000000 
  C38           3.3937000000      0.6213000000      2.6542000000 
  C39           4.2377000000     -1.4224000000      1.6247000000 
  C40          -3.0768000000      1.7313000000     -2.8465000000 
  C41          -4.1036000000     -0.4789000000     -2.9304000000 
  C42          -5.3930000000     -1.4782000000      0.1803000000 
  C43          -3.5984000000     -0.8835000000      1.7233000000 
  C44          -5.8855000000      3.1232000000     -1.0845000000 
  C45          -6.9608000000      1.5345000000      0.4256000000 
  C46           3.6556000000     -0.7149000000     -3.7361000000 
  C47           4.6859000000     -1.5581000000     -3.8665000000 
  C48           5.6570000000     -1.7119000000     -2.7646000000 
  C49           7.3390000000      3.3416000000      1.6448000000 
  C50           8.2912000000      3.3203000000      0.7056000000 
  C51           8.0699000000      2.5784000000     -0.5512000000 
  C52           3.1365000000     -0.1551000000      3.8846000000 
  C53           3.4384000000     -1.4569000000      3.9302000000 
  C54           4.0211000000     -2.1191000000      2.7478000000 
  C55          -2.6694000000      1.5485000000     -4.2546000000 
  C56          -2.9743000000      0.4172000000     -4.8988000000 
  C57          -3.7320000000     -0.6425000000     -4.2061000000 
  C58          -5.5567000000     -2.7424000000      0.9281000000 
  C59          -4.7754000000     -3.0043000000      1.9820000000 
  C60          -3.7574000000     -2.0236000000      2.4060000000 
  C61          -7.1313000000      3.9174000000     -1.0656000000 
  C62          -8.1785000000      3.5050000000     -0.3427000000 
  C63          -8.0869000000      2.2585000000      0.4431000000 
  C64          -0.3665000000     -5.5703000000      4.9050000000 
  C65          -0.8757000000     -5.5448000000      3.6098000000 
  C66          -0.8092000000     -4.3701000000      2.8400000000 
  C67          -0.2380000000     -3.2093000000      3.3979000000 
  C68           0.2587000000     -3.2385000000      4.6954000000 
  C69           0.2007000000     -4.4162000000      5.4483000000 
  C70          -1.3705000000     -4.4147000000      1.4941000000 
  N71          -1.2804000000     -3.4553000000      0.6371000000 
  S72          -2.1663000000     -3.6865000000     -0.8377000000 
  O73          -3.0839000000     -4.8211000000     -0.6919000000 
  O74          -2.6495000000     -2.3442000000     -1.1555000000 
  C75          -0.8966000000     -4.1021000000     -2.0590000000 
  C76          -0.6164000000     -3.1780000000     -3.0611000000 
  C77           0.2907000000     -3.5844000000     -4.0419000000 
  C78           0.8620000000     -4.8505000000     -3.9479000000 
  C79           0.5163000000     -5.6733000000     -2.8705000000 
  N80          -0.3664000000     -5.3120000000     -1.9358000000 
  N81           2.3426000000     -3.1329000000     -0.8366000000 
  C82           3.2343000000     -3.8979000000     -1.5449000000 
  C83           3.6646000000     -4.9257000000     -0.7307000000 
  C84           3.0019000000     -4.7755000000      0.5199000000 
  C85           2.1929000000     -3.6625000000      0.4194000000 
  H86          -0.9928000000      5.3452000000     -0.5412000000 
  H87          -0.3187000000      7.3661000000     -1.6518000000 
  H88           3.7252000000      5.9370000000     -2.0279000000 
  H89           4.3159000000      3.6457000000     -1.1338000000 
  H90           2.0966000000      7.6822000000     -2.4044000000 
  H91           0.8448000000      4.8037000000      2.1900000000 
  H92          -4.4363000000      2.9592000000      1.8124000000 
  H93          -4.0134000000      4.6888000000      3.5293000000 
  H94          -0.0191000000      6.2493000000      3.8841000000 
  H95          -2.4539000000      6.1965000000      4.5633000000 
  H96          -0.7942000000     -1.7675000000      0.7674000000 
  H97           2.6823000000      0.7844000000     -2.4409000000 
  H98           6.2354000000     -1.1149000000     -0.8415000000 
  H99           5.3114000000      2.6627000000      2.1984000000 
  H100          6.7672000000      1.4058000000     -1.6871000000 
  H101          3.1499000000      1.6760000000      2.6459000000 
  H102          4.6544000000     -1.9286000000      0.7677000000 
  H103         -2.8134000000      2.6558000000     -2.3489000000 
  H104         -4.6682000000     -1.2621000000     -2.4513000000 
  H105         -6.0619000000     -1.2714000000     -0.6446000000 
  H106         -2.8552000000     -0.1722000000      2.0553000000 
  H107         -5.0476000000      3.4858000000     -1.6645000000 
  H108         -6.9044000000      0.6389000000      1.0277000000 
  H109          2.9369000000     -0.6075000000     -4.5381000000 
  H110          4.8020000000     -2.1391000000     -4.7722000000 
  H111          6.4863000000     -2.3992000000     -2.8705000000 
  H112          7.4951000000      3.8913000000      2.5640000000 
  H113          9.2205000000      3.8529000000      0.8608000000 
  H114          8.8329000000      2.5826000000     -1.3190000000 
  H115          2.7081000000      0.3338000000      4.7498000000 
  H116          3.2576000000     -2.0269000000      4.8322000000 
  H117          4.2656000000     -3.1725000000      2.7896000000 
  H118         -2.1189000000      2.3307000000     -4.7611000000 
  H119         -2.6736000000      0.2794000000     -5.9294000000 
  H120         -3.9922000000     -1.5502000000     -4.7353000000 
  H121         -6.3095000000     -3.4560000000      0.6197000000 
  H122         -4.8910000000     -3.9311000000      2.5288000000 
  H123         -3.1406000000     -2.2292000000      3.2711000000 
  H124         -7.1932000000      4.8342000000     -1.6375000000 
  H125         -9.0913000000      4.0864000000     -0.3266000000 
  H126         -8.9298000000      1.9374000000      1.0413000000 
  H127         -0.4155000000     -6.4833000000      5.4898000000 
  H128         -1.3239000000     -6.4374000000      3.1823000000 
  H129         -0.2014000000     -2.2894000000      2.8264000000 
  H130          0.6881000000     -2.3394000000      5.1254000000 
  H131          0.5933000000     -4.4307000000      6.4607000000 
  H132         -1.9173000000     -5.3234000000      1.2237000000 
  H133         -1.0761000000     -2.1985000000     -3.0578000000 
  H134          0.5493000000     -2.9149000000     -4.8564000000 
  H135          1.5752000000     -5.1999000000     -4.6872000000 
  H136          0.9640000000     -6.6565000000     -2.7555000000 
  H137          1.8641000000     -2.2957000000     -1.1619000000 
  H138          3.4729000000     -3.6709000000     -2.5711000000 
  H139          4.3724000000     -5.6961000000     -1.0044000000 
  H140          3.1090000000     -5.4036000000      1.3933000000 
  H141          1.5487000000     -3.1896000000      1.1430000000 
   
  principal moments of inertia:
        amu*angstrom^2:    18469.16655    22338.07206    28962.39585
                g*cm^2: 3.06687688E-36 3.70932367E-36 4.80931838E-36
   
  rotational constants:
               cm^(-1):      0.00091274      0.00075466      0.00058205
                   GHz:      0.02736339      0.02262411      0.01744949
   
  Molecular weight:    1177.32 amu
   
  Stoichiometry: Si2C72PN3H56SO6
[running at reduced cpu priority]
  Molecular Point Group: C1      
  Point Group used: C1
  
  nuclear repulsion energy.......   17206.221407305 hartrees
 
 Non-default options chosen:
   SCF calculation type: DFT(m06-2x)                 
   DFT=M06-2X
   Solvation energy will be computed using PBF
     -solute cavity energy will not be included
     -surface area terms will not be included
   Highest accuracy cutoffs used in SCF
   Solvent: other                                                           
   Internal dielectric constant:    1.000
   Continuum dielectric constant:   2.380
   Solvent probe molecule radius:   2.760
  
 Temporary integer options set:
     73=  2
  
  atom       vdw   vdw2    cov     mass  grid  daf  charge   basis
  C1        1.949  1.900  0.770   12.000    Y    Y      Y    6-31g**
  C2        1.949  1.900  0.770   12.000    Y    Y      Y    6-31g**
  C3        1.949  1.900  0.770   12.000    Y    Y      Y    6-31g**
  C4        1.949  1.900  0.770   12.000    Y    Y      Y    6-31g**
  C5        1.949  1.900  0.770   12.000    Y    Y      Y    6-31g**
  C6        1.949  1.900  0.770   12.000    Y    Y      Y    6-31g**
  C7        1.949  1.900  0.770   12.000    Y    Y      Y    6-31g**
  C8        1.949  1.900  0.770   12.000    Y    Y      Y    6-31g**
  C9        1.949  1.900  0.770   12.000    Y    Y      Y    6-31g**
  C10       1.949  1.900  0.770   12.000    Y    Y      Y    6-31g**
  C11       1.949  1.900  0.770   12.000    Y    Y      Y    6-31g**
  O12       1.702  1.600  0.730   15.995    Y    Y      Y    6-31g**
  Si13      2.217  2.147  1.110   27.977    Y    Y      Y    6-31g**
  C14       1.949  1.900  0.770   12.000    Y    Y      Y    6-31g**
  C15       1.949  1.900  0.770   12.000    Y    Y      Y    6-31g**
  C16       1.949  1.900  0.770   12.000    Y    Y      Y    6-31g**
  C17       1.949  1.900  0.770   12.000    Y    Y      Y    6-31g**
  C18       1.949  1.900  0.770   12.000    Y    Y      Y    6-31g**
  C19       1.949  1.900  0.770   12.000    Y    Y      Y    6-31g**
  C20       1.949  1.900  0.770   12.000    Y    Y      Y    6-31g**
  Si21      2.217  2.147  1.110   27.977    Y    Y      Y    6-31g**
  O22       1.702  1.600  0.730   15.995    Y    Y      Y    6-31g**
  C23       1.949  1.900  0.770   12.000    Y    Y      Y    6-31g**
  C24       1.949  1.900  0.770   12.000    Y    Y      Y    6-31g**
  P25       2.147  2.074  1.060   30.974    Y    Y      Y    6-31g**
  O26       1.702  1.600  0.730   15.995    Y    Y      Y    6-31g**
  O27       1.702  1.600  0.730   15.995    Y    Y      Y    6-31g**
  C28       1.949  1.900  0.770   12.000    Y    Y      Y    6-31g**
  C29       1.949  1.900  0.770   12.000    Y    Y      Y    6-31g**
  C30       1.949  1.900  0.770   12.000    Y    Y      Y    6-31g**
  C31       1.949  1.900  0.770   12.000    Y    Y      Y    6-31g**
  C32       1.949  1.900  0.770   12.000    Y    Y      Y    6-31g**
  C33       1.949  1.900  0.770   12.000    Y    Y      Y    6-31g**
  C34       1.949  1.900  0.770   12.000    Y    Y      Y    6-31g**
  C35       1.949  1.900  0.770   12.000    Y    Y      Y    6-31g**
  C36       1.949  1.900  0.770   12.000    Y    Y      Y    6-31g**
  C37       1.949  1.900  0.770   12.000    Y    Y      Y    6-31g**
  C38       1.949  1.900  0.770   12.000    Y    Y      Y    6-31g**
  C39       1.949  1.900  0.770   12.000    Y    Y      Y    6-31g**
  C40       1.949  1.900  0.770   12.000    Y    Y      Y    6-31g**
  C41       1.949  1.900  0.770   12.000    Y    Y      Y    6-31g**
  C42       1.949  1.900  0.770   12.000    Y    Y      Y    6-31g**
  C43       1.949  1.900  0.770   12.000    Y    Y      Y    6-31g**
  C44       1.949  1.900  0.770   12.000    Y    Y      Y    6-31g**
  C45       1.949  1.900  0.770   12.000    Y    Y      Y    6-31g**
  C46       1.949  1.900  0.770   12.000    Y    Y      Y    6-31g**
  C47       1.949  1.900  0.770   12.000    Y    Y      Y    6-31g**
  C48       1.949  1.900  0.770   12.000    Y    Y      Y    6-31g**
  C49       1.949  1.900  0.770   12.000    Y    Y      Y    6-31g**
  C50       1.949  1.900  0.770   12.000    Y    Y      Y    6-31g**
  C51       1.949  1.900  0.770   12.000    Y    Y      Y    6-31g**
  C52       1.949  1.900  0.770   12.000    Y    Y      Y    6-31g**
  C53       1.949  1.900  0.770   12.000    Y    Y      Y    6-31g**
  C54       1.949  1.900  0.770   12.000    Y    Y      Y    6-31g**
  C55       1.949  1.900  0.770   12.000    Y    Y      Y    6-31g**
  C56       1.949  1.900  0.770   12.000    Y    Y      Y    6-31g**
  C57       1.949  1.900  0.770   12.000    Y    Y      Y    6-31g**
  C58       1.949  1.900  0.770   12.000    Y    Y      Y    6-31g**
  C59       1.949  1.900  0.770   12.000    Y    Y      Y    6-31g**
  C60       1.949  1.900  0.770   12.000    Y    Y      Y    6-31g**
  C61       1.949  1.900  0.770   12.000    Y    Y      Y    6-31g**
  C62       1.949  1.900  0.770   12.000    Y    Y      Y    6-31g**
  C63       1.949  1.900  0.770   12.000    Y    Y      Y    6-31g**
  C64       1.949  1.900  0.770   12.000    Y    Y      Y    6-31g**
  C65       1.949  1.900  0.770   12.000    Y    Y      Y    6-31g**
  C66       1.949  1.900  0.770   12.000    Y    Y      Y    6-31g**
  C67       1.949  1.900  0.770   12.000    Y    Y      Y    6-31g**
  C68       1.949  1.900  0.770   12.000    Y    Y      Y    6-31g**
  C69       1.949  1.900  0.770   12.000    Y    Y      Y    6-31g**
  C70       1.949  1.900  0.770   12.000    Y    Y      Y    6-31g**
  N71       1.831  1.600  0.750   14.003    Y    Y      Y    6-31g**
  S72       2.070  1.900  1.020   31.972    Y    Y      Y    6-31g**
  O73       1.702  1.600  0.730   15.995    Y    Y      Y    6-31g**
  O74       1.702  1.600  0.730   15.995    Y    Y      Y    6-31g**
  C75       1.949  1.900  0.770   12.000    Y    Y      Y    6-31g**
  C76       1.949  1.900  0.770   12.000    Y    Y      Y    6-31g**
  C77       1.949  1.900  0.770   12.000    Y    Y      Y    6-31g**
  C78       1.949  1.900  0.770   12.000    Y    Y      Y    6-31g**
  C79       1.949  1.900  0.770   12.000    Y    Y      Y    6-31g**
  N80       1.831  1.600  0.750   14.003    Y    Y      Y    6-31g**
  N81       1.831  1.600  0.750   14.003    Y    Y      Y    6-31g**
  C82       1.949  1.900  0.770   12.000    Y    Y      Y    6-31g**
  C83       1.949  1.900  0.770   12.000    Y    Y      Y    6-31g**
  C84       1.949  1.900  0.770   12.000    Y    Y      Y    6-31g**
  C85       1.949  1.900  0.770   12.000    Y    Y      Y    6-31g**
  H86       1.597  1.150  0.320    1.008    Y    Y      Y    6-31g**
  H87       1.597  1.150  0.320    1.008    Y    Y      Y    6-31g**
  H88       1.597  1.150  0.320    1.008    Y    Y      Y    6-31g**
  H89       1.597  1.150  0.320    1.008    Y    Y      Y    6-31g**
  H90       1.597  1.150  0.320    1.008    Y    Y      Y    6-31g**
  H91       1.597  1.150  0.320    1.008    Y    Y      Y    6-31g**
  H92       1.597  1.150  0.320    1.008    Y    Y      Y    6-31g**
  H93       1.597  1.150  0.320    1.008    Y    Y      Y    6-31g**
  H94       1.597  1.150  0.320    1.008    Y    Y      Y    6-31g**
  H95       1.597  1.150  0.320    1.008    Y    Y      Y    6-31g**
  H96       1.597  1.150  0.320    1.008    Y    Y      Y    6-31g**
  H97       1.597  1.150  0.320    1.008    Y    Y      Y    6-31g**
  H98       1.597  1.150  0.320    1.008    Y    Y      Y    6-31g**
  H99       1.597  1.150  0.320    1.008    Y    Y      Y    6-31g**
  H100      1.597  1.150  0.320    1.008    Y    Y      Y    6-31g**
  H101      1.597  1.150  0.320    1.008    Y    Y      Y    6-31g**
  H102      1.597  1.150  0.320    1.008    Y    Y      Y    6-31g**
  H103      1.597  1.150  0.320    1.008    Y    Y      Y    6-31g**
  H104      1.597  1.150  0.320    1.008    Y    Y      Y    6-31g**
  H105      1.597  1.150  0.320    1.008    Y    Y      Y    6-31g**
  H106      1.597  1.150  0.320    1.008    Y    Y      Y    6-31g**
  H107      1.597  1.150  0.320    1.008    Y    Y      Y    6-31g**
  H108      1.597  1.150  0.320    1.008    Y    Y      Y    6-31g**
  H109      1.597  1.150  0.320    1.008    Y    Y      Y    6-31g**
  H110      1.597  1.150  0.320    1.008    Y    Y      Y    6-31g**
  H111      1.597  1.150  0.320    1.008    Y    Y      Y    6-31g**
  H112      1.597  1.150  0.320    1.008    Y    Y      Y    6-31g**
  H113      1.597  1.150  0.320    1.008    Y    Y      Y    6-31g**
  H114      1.597  1.150  0.320    1.008    Y    Y      Y    6-31g**
  H115      1.597  1.150  0.320    1.008    Y    Y      Y    6-31g**
  H116      1.597  1.150  0.320    1.008    Y    Y      Y    6-31g**
  H117      1.597  1.150  0.320    1.008    Y    Y      Y    6-31g**
  H118      1.597  1.150  0.320    1.008    Y    Y      Y    6-31g**
  H119      1.597  1.150  0.320    1.008    Y    Y      Y    6-31g**
  H120      1.597  1.150  0.320    1.008    Y    Y      Y    6-31g**
  H121      1.597  1.150  0.320    1.008    Y    Y      Y    6-31g**
  H122      1.597  1.150  0.320    1.008    Y    Y      Y    6-31g**
  H123      1.597  1.150  0.320    1.008    Y    Y      Y    6-31g**
  H124      1.597  1.150  0.320    1.008    Y    Y      Y    6-31g**
  H125      1.597  1.150  0.320    1.008    Y    Y      Y    6-31g**
  H126      1.597  1.150  0.320    1.008    Y    Y      Y    6-31g**
  H127      1.597  1.150  0.320    1.008    Y    Y      Y    6-31g**
  H128      1.597  1.150  0.320    1.008    Y    Y      Y    6-31g**
  H129      1.597  1.150  0.320    1.008    Y    Y      Y    6-31g**
  H130      1.597  1.150  0.320    1.008    Y    Y      Y    6-31g**
  H131      1.597  1.150  0.320    1.008    Y    Y      Y    6-31g**
  H132      1.597  1.150  0.320    1.008    Y    Y      Y    6-31g**
  H133      1.597  1.150  0.320    1.008    Y    Y      Y    6-31g**
  H134      1.597  1.150  0.320    1.008    Y    Y      Y    6-31g**
  H135      1.597  1.150  0.320    1.008    Y    Y      Y    6-31g**
  H136      1.597  1.150  0.320    1.008    Y    Y      Y    6-31g**
  H137      1.597  1.150  0.320    1.008    Y    Y      Y    6-31g**
  H138      1.597  1.150  0.320    1.008    Y    Y      Y    6-31g**
  H139      1.597  1.150  0.320    1.008    Y    Y      Y    6-31g**
  H140      1.597  1.150  0.320    1.008    Y    Y      Y    6-31g**
  H141      1.597  1.150  0.320    1.008    Y    Y      Y    6-31g**
  
  Peak memory usage:    766 Mb
  
  end of program pre
   
 Time(pre)  user:        1.3  user+sys:        1.3  wallclock:        1.8
  
  start of program onee
  
  smallest eigenvalue of S:    2.300E-04
  number of canonical orbitals.....         1565
  Peak memory usage:    893 Mb
  
  end of program onee
   
 Time(onee)  user:       17.9  user+sys:       17.9  wallclock:       24.6
  
  start of program hfig
  
  initial wavefunction generated automatically from atomic wavefunctions
 
  Irreducible     Total no   No of occupied orbitals 
  representation  orbitals   Shell_1  Shell_2    ...
  No Symm         1565        308
  ------------------------
  Orbital occupation/shell    1.000
 
  Peak memory usage:    826 Mb
  
  end of program hfig
   
 Time(hfig)  user:       28.0  user+sys:       28.0  wallclock:       35.0
  
  start of program probe
  
  Peak memory usage:    820 Mb
  
  end of program probe
   
 Time(probe)  user:       15.8  user+sys:       15.8  wallclock:       18.6
  
  start of program grid
  
   grid     grid set  grid #  grid sym
  ------    --------  ------  --------
  coarse        0        0        1
  medium        2        1        1
  fine          0        0        1
  ultrafine     4        2        1
  charge       -1        3        1
  gradient      4        2        1
  density       0        0        1
  DFT-fine    -13        4        1
  DFT-med.    -13        4        1
  DFT-grad    -13        4        1
  DFT-der2      0        0        1
  DFT-cphf      0        0        1
  LMP2-enrg     4        2        1
  LMP2-grad     2        1        1
  DFT-cphf2     0        0        1
  PBF-dens      0        0        1
  plotting      0        0        1
  Rel-grad    -17        0        1
  
  number of gridpoints: 
     atom        C1       C2       C3       C4       C5       C6       C7
  grid # 1       97      102       94      102      100       96       92
  grid # 2      338      360      336      367      358      335      336
  grid # 3       31       24       41       46       15       46       23
  grid # 4    48124    48124    48124    48124    48124    48124    48124
   
  number of gridpoints: 
     atom        C8       C9      C10      C11      O12     Si13      C14
  grid # 1       94       96      100       99      112      477      102
  grid # 2      335      355      355      359      436      477      359
  grid # 3       49       16       12       11       51        8       31
  grid # 4    48124    48124    48124    48124    47716    38542    48124
   
  number of gridpoints: 
     atom       C15      C16      C17      C18      C19      C20     Si21
  grid # 1       97      102       97       93       97      101      479
  grid # 2      354      366      338      335      340      358      479
  grid # 3       12       42       31       22       47       10        8
  grid # 4    48124    48124    48124    48124    48124    48124    38542
   
  number of gridpoints: 
     atom       O22      C23      C24      P25      O26      O27      C28
  grid # 1      113       95       94      447      115      111       98
  grid # 2      435      338      339      447      464      399      360
  grid # 3       53       41       46        7       62       42        9
  grid # 4    47716    48124    48124    38640    47716    47716    48124
   
  number of gridpoints: 
     atom       C29      C30      C31      C32      C33      C34      C35
  grid # 1      101      101      101      101      101       92       94
  grid # 2      360      361      359      357      360      334      330
  grid # 3       18       18       19        9       20       17        9
  grid # 4    48124    48124    48124    48124    48124    48124    48124
   
  number of gridpoints: 
     atom       C36      C37      C38      C39      C40      C41      C42
  grid # 1       93       96       92       97       92       97       92
  grid # 2      336      336      335      337      335      336      330
  grid # 3       31       26       19       29       20       28        8
  grid # 4    48124    48124    48124    48124    48124    48124    48124
   
  number of gridpoints: 
     atom       C43      C44      C45      C46      C47      C48      C49
  grid # 1       96       93       96       93       94       92       94
  grid # 2      335      336      338      334      331      329      336
  grid # 3       19       30       26       26       26       16       43
  grid # 4    48124    48124    48124    48124    48124    48124    48124
   
  number of gridpoints: 
     atom       C50      C51      C52      C53      C54      C55      C56
  grid # 1       94       94       93       93       93       93       93
  grid # 2      336      336      335      335      334      335      336
  grid # 3       45       42       35       34       28       39       36
  grid # 4    48124    48124    48124    48124    48124    48124    48124
   
  number of gridpoints: 
     atom       C57      C58      C59      C60      C61      C62      C63
  grid # 1       93       92       93       93       94       94       94
  grid # 2      334      333      331      330      336      336      336
  grid # 3       28       18       25       25       41       44       42
  grid # 4    48124    48124    48124    48124    48124    48124    48124
   
  number of gridpoints: 
     atom       C64      C65      C66      C67      C68      C69      C70
  grid # 1       97       95       99       95       95       97       93
  grid # 2      332      337      362      332      334      333      328
  grid # 3       45       35       21       18       33       45       14
  grid # 4    48124    48124    48124    48124    48124    48124    48124
   
  number of gridpoints: 
     atom       N71      S72      O73      O74      C75      C76      C77
  grid # 1      108      445      122      117       98       96       96
  grid # 2      392      445      497      465      358      327      329
  grid # 3       18       16      222       42       27       26       31
  grid # 4    47928    48492    47716    47716    48124    48124    48124
   
  number of gridpoints: 
     atom       C78      C79      N80      N81      C82      C83      C84
  grid # 1       96       96      112       97       93       93       93
  grid # 2      331      337      422      327      323      329      329
  grid # 3       30       31      105       11       11       17       20
  grid # 4    48124    48124    47928    47928    48124    48124    48124
   
  number of gridpoints: 
     atom       C85      H86      H87      H88      H89      H90      H91
  grid # 1       93      111      118      118      110      118      113
  grid # 2      321      433      452      446      428      453      433
  grid # 3       13      222      417      360      204      424      244
  grid # 4    48124    48426    48426    48426    48426    48426    48426
   
  number of gridpoints: 
     atom       H92      H93      H94      H95      H96      H97      H98
  grid # 1      111      118      118      118      100      109      112
  grid # 2      426      443      449      450      390      427      428
  grid # 3      202      366      410      417       47      181      219
  grid # 4    48426    48426    48426    48426    48426    48426    48426
   
  number of gridpoints: 
     atom       H99     H100     H101     H102     H103     H104     H105
  grid # 1      111      111      110      107      111      111      110
  grid # 2      434      433      425      418      424      418      426
  grid # 3      224      228      166      133      158      162      198
  grid # 4    48426    48426    48426    48426    48426    48426    48426
   
  number of gridpoints: 
     atom      H106     H107     H108     H109     H110     H111     H112
  grid # 1      111      111      111      116      117      117      118
  grid # 2      421      434      432      445      450      451      453
  grid # 3      174      223      235      325      372      383      420
  grid # 4    48426    48426    48426    48426    48426    48426    48426
   
  number of gridpoints: 
     atom      H113     H114     H115     H116     H117     H118     H119
  grid # 1      118      118      117      113      113      118      117
  grid # 2      453      453      449      439      437      451      452
  grid # 3      424      423      373      283      284      395      398
  grid # 4    48426    48426    48426    48426    48426    48426    48426
   
  number of gridpoints: 
     atom      H120     H121     H122     H123     H124     H125     H126
  grid # 1      117      117      117      113      118      118      118
  grid # 2      451      451      449      436      453      453      453
  grid # 3      377      389      358      267      420      425      422
  grid # 4    48426    48426    48426    48426    48426    48426    48426
   
  number of gridpoints: 
     atom      H127     H128     H129     H130     H131     H132     H133
  grid # 1      118      115      110      113      118      105      108
  grid # 2      450      440      411      432      449      423      425
  grid # 3      419      331      107      239      405      186      157
  grid # 4    48426    48426    48426    48426    48426    48426    48426
   
  number of gridpoints: 
     atom      H134     H135     H136     H137     H138     H139     H140
  grid # 1      116      117      117      106      111      117      115
  grid # 2      445      448      451      413      433      458      453
  grid # 3      322      372      398      105      178      425      353
  grid # 4    48426    48426    48426    48426    48426    48426    48426
   
  number of gridpoints: 
     atom      H141    total
  grid # 1      107    16113
  grid # 2      421    54730
  grid # 3      107    19062
  grid # 4    48426  6771080
   
  Peak memory usage:    793 Mb
  
  end of program grid
   
 Time(grid)  user:      970.0  user+sys:      970.0  wallclock:     1086.7
  
  start of program rwr
  
  Peak memory usage:    802 Mb
  
  end of program rwr
   
 Time(rwr)  user:       59.0  user+sys:       59.0  wallclock:       71.1
  
  start of program scf
  
 number of electrons..........        616
 number of alpha electrons....        308
 number of beta electrons.....        308
 number of orbitals, total....       1565
 number of doubly-occ'd orbs..        308
 number of open shell orbs....          0
 number of occupied orbitals..        308
 number of virtual orbitals...       1257
 number of hamiltonians.......          1
 number of shells.............          1
 SCF type: DFT=M06-2X
 Energy computed with NOPS off.
  
       i  u  d  i  g                   
       t  p  i  c  r                                 RMS    maximum
       e  d  i  u  i                       energy  density   DIIS  
       r  t  s  t  d       total energy    change  change    error 
  
etot    1  N  N  1  U   -4699.66656958036           2.6E-03  9.3E-02
etot    2  N  Y  1  U   -4700.68550978081  1.0E+00  6.1E-03  9.6E-02
etot    3  N  Y  1  U   -4640.38774312026 -6.0E+01  6.0E-03  2.0E-01
etot    4  N  Y  1  U   -4708.60220673003  6.8E+01  1.1E-03  5.6E-02
etot    5  N  Y  1  U   -4709.63805034871  1.0E+00  5.3E-04  2.9E-02
etot    6  N  Y  1  U   -4710.00515312838  3.7E-01  1.9E-04  1.1E-02
etot    7  N  Y  1  U   -4710.04801073151  4.3E-02  8.0E-05  5.4E-03
etot    8  N  Y  1  U   -4710.05502233100  7.0E-03  3.2E-05  1.7E-03
etot    9  N  Y  1  U   -4710.05641075267  1.4E-03  1.2E-05  6.2E-04
etot   10  N  Y  1  U   -4710.05654932937  1.4E-04  4.7E-06  3.0E-04
etot   11  N  N  1  U   -4710.05657601194  2.7E-05  0.0E+00  0.0E+00
  
  
 Energy components, in hartrees:
   (A)  Nuclear repulsion............   17206.22140730518
   (E)  Total one-electron terms.....  -40749.47647243220
   (F)    Electron-nuclear...........  -45424.82992045028
   (H)    Kinetic....................    4675.35344801808
   (I)  Total two-electron terms.....   18833.19848911508
   (J)    Coulomb....................   19406.51298798252
   (K)    Exchange+Correlation.......    -573.31449886744
   (L)  Electronic energy............  -21916.27798331712  (E+I)
   (M)  -V/T.........................       2.00742256781  (-(A+F+I)/H)
   (N)  Total energy.................   -4710.05657601194  (A+L)
   (O)  Gas phase energy.............   -4710.05657601194
  
 SCFE: SCF energy: DFT(m06-2x)     -4710.05657601194 hartrees   iterations:  11
  
 
 HOMO energy:    -0.22960
 LUMO energy:    -0.05293
 
  Orbital energies (hartrees): 
   -90.15203   -78.22550   -67.00851   -67.00608   -19.69783   -19.69651
   -19.66555   -19.64108   -19.63548   -19.61261   -14.80663   -14.78134
   -14.76891   -10.63981   -10.62883   -10.62700   -10.62053   -10.59923
   -10.58414   -10.58098   -10.58005   -10.57742   -10.57478   -10.57466
   -10.57460   -10.57425   -10.57317   -10.57245   -10.57234   -10.57145
   -10.57030   -10.56612   -10.56412   -10.56345   -10.55999   -10.55680
   -10.55668   -10.55664   -10.55598   -10.55562   -10.55551   -10.55472
   -10.55402   -10.55013   -10.55006   -10.54927   -10.54790   -10.54777
   -10.54763   -10.54719   -10.54710   -10.54686   -10.54683   -10.54655
   -10.54577   -10.54554   -10.54504   -10.54444   -10.54421   -10.54395
   -10.54345   -10.54270   -10.54259   -10.54210   -10.54119   -10.54116
   -10.54072   -10.54062   -10.53944   -10.53857   -10.53736   -10.53721
   -10.53652   -10.53629   -10.53555   -10.53525   -10.53454   -10.53151
   -10.53142   -10.52850   -10.52652   -10.52595   -10.52404   -10.50311
   -10.50207    -8.46405    -7.00428    -6.38600    -6.38520    -6.38439
    -5.53975    -5.53707    -5.12241    -5.12188    -5.12056    -3.84962
    -3.84915    -3.84902    -3.84709    -3.84648    -3.84625    -1.24209
    -1.23038    -1.19287    -1.15734    -1.11976    -1.08765    -1.07265
    -1.05304    -1.04758    -0.98693    -0.97816    -0.97088    -0.94376
    -0.94036    -0.94031    -0.93492    -0.93373    -0.93104    -0.92631
    -0.91571    -0.91459    -0.89356    -0.88785    -0.87593    -0.86197
    -0.85700    -0.84502    -0.84271    -0.83672    -0.83511    -0.83354
    -0.83269    -0.83262    -0.83102    -0.82743    -0.82721    -0.82641
    -0.82410    -0.82379    -0.82125    -0.82057    -0.81787    -0.80463
    -0.79279    -0.77993    -0.75715    -0.74438    -0.72875    -0.71551
    -0.71199    -0.71054    -0.69988    -0.69379    -0.69213    -0.68176
    -0.67974    -0.67527    -0.67457    -0.67124    -0.67099    -0.66594
    -0.66484    -0.66245    -0.66049    -0.65824    -0.65714    -0.65618
    -0.65394    -0.65160    -0.63822    -0.63154    -0.62642    -0.62114
    -0.61212    -0.60835    -0.60414    -0.60276    -0.60105    -0.59571
    -0.59007    -0.58344    -0.58067    -0.57884    -0.57491    -0.57338
    -0.57184    -0.56852    -0.56256    -0.56055    -0.55991    -0.55796
    -0.54945    -0.54292    -0.53871    -0.53368    -0.52941    -0.52661
    -0.52504    -0.52311    -0.52146    -0.51713    -0.51393    -0.51220
    -0.51096    -0.50999    -0.50736    -0.50536    -0.50421    -0.50297
    -0.50230    -0.49905    -0.49814    -0.49736    -0.49548    -0.49315
    -0.49202    -0.49105    -0.49071    -0.48800    -0.48641    -0.48453
    -0.48218    -0.48063    -0.47905    -0.47779    -0.47711    -0.47396
    -0.47330    -0.47128    -0.47002    -0.46661    -0.45751    -0.45641
    -0.45411    -0.45173    -0.45054    -0.44852    -0.44674    -0.44651
    -0.44395    -0.44250    -0.43956    -0.43585    -0.43514    -0.43356
    -0.42944    -0.42570    -0.42531    -0.42424    -0.42131    -0.42114
    -0.41949    -0.41685    -0.41616    -0.41397    -0.41120    -0.41073
    -0.40381    -0.40305    -0.40127    -0.39668    -0.39440    -0.39242
    -0.39010    -0.38943    -0.38928    -0.38651    -0.38561    -0.38191
    -0.38130    -0.38015    -0.37915    -0.37484    -0.37199    -0.36800
    -0.36213    -0.35435    -0.35394    -0.35280    -0.34654    -0.34225
    -0.33960    -0.33844    -0.33551    -0.33196    -0.33078    -0.32985
    -0.32411    -0.31599    -0.30280    -0.30133    -0.29917    -0.29735
    -0.29631    -0.29464    -0.29316    -0.29000    -0.28966    -0.28917
    -0.28814    -0.28582    -0.28465    -0.28106    -0.27715    -0.26758
    -0.25642    -0.22960    -0.05293    -0.02258    -0.00850    -0.00403
     0.00729     0.00923     0.01268     0.01643     0.01890     0.02138
 
  Peak memory usage:   1020 Mb
  
  end of program scf
   
 Time(scf)  user:    25273.6  user+sys:    25273.6  wallclock:    26869.4
  
  start of program ch
  
  gridpoints used for charge fit        16529
    out of a possible maximum of        19062
  
   Electrostatic potential fitting constrained to reproduce
     total charge:                yes
     dipole moment:               no 
     traceless quadrupole moment: no 
     traceless octapole moment:   no 
  
  Atomic charges from electrostatic potential: 
   
 Atom       C1           C2           C3           C4           C5      
 Charge   -0.11709     -0.02179     -0.18535      0.24261      0.04269
   
 Atom       C6           C7           C8           C9           C10     
 Charge   -0.25291     -0.39302     -0.08524      0.09642     -0.24976
   
 Atom       C11          O12          Si13         C14          C15     
 Charge    0.07214     -0.21729     -0.04220      0.09967      0.27305
   
 Atom       C16          C17          C18          C19          C20     
 Charge    0.25510     -0.14400     -0.43939     -0.25815      0.04318
   
 Atom       Si21         O22          C23          C24          P25     
 Charge    0.00353     -0.31892     -0.16895     -0.09670      0.89653
   
 Atom       O26          O27          C28          C29          C30     
 Charge   -0.52525     -0.53995      0.03600      0.11425      0.03434
   
 Atom       C31          C32          C33          C34          C35     
 Charge    0.01333      0.22870      0.01477      0.01594     -0.14507
   
 Atom       C36          C37          C38          C39          C40     
 Charge   -0.17005     -0.16654     -0.14667     -0.08168     -0.08627
   
 Atom       C41          C42          C43          C44          C45     
 Charge   -0.13784     -0.08316     -0.25525     -0.10106     -0.10900
   
 Atom       C46          C47          C48          C49          C50     
 Charge   -0.23628     -0.10265     -0.13124     -0.12258     -0.14515
   
 Atom       C51          C52          C53          C54          C55     
 Charge   -0.12328     -0.16240     -0.11090     -0.14064     -0.19886
   
 Atom       C56          C57          C58          C59          C60     
 Charge   -0.07957     -0.14595     -0.19331     -0.12776     -0.07913
   
 Atom       C61          C62          C63          C64          C65     
 Charge   -0.14170     -0.13910     -0.14034     -0.14629     -0.18429
   
 Atom       C66          C67          C68          C69          C70     
 Charge    0.06849      0.09502     -0.21184     -0.06996      0.08534
   
 Atom       N71          S72          O73          O74          C75     
 Charge   -0.32301      0.53570     -0.39518     -0.33483      0.59115
   
 Atom       C76          C77          C78          C79          N80     
 Charge   -0.49872      0.25276     -0.51870      0.46116     -0.61913
   
 Atom       N81          C82          C83          C84          C85     
 Charge    0.15682     -0.16939     -0.33646     -0.11475     -0.26393
   
 Atom       H86          H87          H88          H89          H90     
 Charge    0.13204      0.14800      0.15136      0.19542      0.13098
   
 Atom       H91          H92          H93          H94          H95     
 Charge    0.12330      0.21046      0.15385      0.14550      0.12995
   
 Atom       H96          H97          H98          H99          H100    
 Charge    0.36856      0.07651      0.13264      0.12672      0.10859
   
 Atom       H101         H102         H103         H104         H105    
 Charge    0.13275      0.09128      0.11459      0.12261      0.09788
   
 Atom       H106         H107         H108         H109         H110    
 Charge    0.13464      0.10409      0.07089      0.14970      0.12409
   
 Atom       H111         H112         H113         H114         H115    
 Charge    0.12525      0.12808      0.13224      0.13033      0.12721
   
 Atom       H116         H117         H118         H119         H120    
 Charge    0.11631      0.12166      0.13553      0.11135      0.12039
   
 Atom       H121         H122         H123         H124         H125    
 Charge    0.14949      0.13011      0.08646      0.12947      0.13152
   
 Atom       H126         H127         H128         H129         H130    
 Charge    0.13487      0.14561      0.15502      0.07128      0.14139
   
 Atom       H131         H132         H133         H134         H135    
 Charge    0.13223      0.13945      0.22150      0.08390      0.20229
   
 Atom       H136         H137         H138         H139         H140    
 Charge    0.04244      0.13481      0.13500      0.17396      0.11915
   
 Atom       H141    
 Charge    0.13239
  
  sum of atomic charges:     0.000000
   
 RMS Error   1.02E-03 hartrees
 
  Peak memory usage:    810 Mb
  
  end of program ch
   
 Time(ch)  user:       16.3  user+sys:       16.3  wallclock:       18.0
  
  start of program post
  
  Writing input files for PBF
  Peak memory usage:    758 Mb
  
  end of program post
   
 Time(post)  user:        0.7  user+sys:        0.7  wallclock:        1.0

  start of program pbf

Pbf Version 4.10

Molecular surface area:      841.47232   [A2]
Reaction field energy:       -15.97505   [kT]
  Peak memory usage: 719 Mb

  end of program pbf

 Time(pbf)  user:       15.8  user+sys:       15.9  wallclock:       16.3
  
  start of program solv
  
   number of surface charges from PBF   13350
   sum of surface charges     -0.00037
   
  nuclear repulsion energy.......   17206.221407305 hartrees
  Peak memory usage:    887 Mb
  
  end of program solv
   
 Time(solv)  user:       32.9  user+sys:       32.9  wallclock:       33.8
  
  start of program scf
  
 Energy computed with NOPS off.
  
       i  u  d  i  g                   
       t  p  i  c  r                                 RMS    maximum
       e  d  i  u  i                       energy  density   DIIS  
       r  t  s  t  d       total energy    change  change    error 
  
etot    1  N  N  1  U   -4710.09043088385           5.3E-05  1.1E-03
etot    2  N  Y  1  U   -4710.09109791541  6.7E-04  1.7E-05  9.7E-04
etot    3  N  Y  1  U   -4710.09133139168  2.3E-04  5.8E-06  4.5E-04
etot    4  N  N  1  U   -4710.09137811827  4.7E-05  0.0E+00  0.0E+00
  
  
 Energy components, in hartrees:
   (A)  Total zero-electron terms....   17208.62409629285
   (B)    Nuclear-nuclear............   17206.22140730518
   (C)    Nuclear-solvent............       2.40268898767
   (E)  Total one-electron terms.....  -40753.16513182358
   (F)    Electron-nuclear...........  -45426.10536629101
   (G)    Electron-solvent...........      -2.43841835552
   (H)    Kinetic....................    4675.37865282296
   (I)  Total two-electron terms.....   18834.44965741246
   (J)    Coulomb....................   19407.77922050024
   (K)    Exchange+Correlation.......    -573.32956308778
   (L)  Electronic energy............  -21918.71547441112  (E+I)
   (N)  Total quantum mech. energy...   -4710.09137811827  (A+L)
   (O)  Gas phase energy.............   -4710.05657601194
   (P)  Solution phase energy........   -4710.07351343435  (Q+R+S)
   (Q)    Total solute energy........   -4710.05564875042  (N-C-G)
   (R)    Total solvent energy.......      -0.01786468392  (C/2+G/2)
   (S)    Solute cavity energy.......       0.00000000000
   (U)  Reorganization energy........       0.00092726152  (Q-O)
   (V)  Solvation energy.............      -0.01693742240  (P-O)
  
 SCFE:  Solution phase energy: DFT(m06-2x)      -4710.07351343435 hartrees
        SCF iterations:   4
  
 
 HOMO energy:    -0.23357
 LUMO energy:    -0.05222
 
  Orbital energies (hartrees): 
   -90.15648   -78.22808   -67.01046   -67.00924   -19.70140   -19.69894
   -19.66807   -19.64619   -19.64294   -19.61528   -14.80777   -14.78189
   -14.77311   -10.63946   -10.63185   -10.62917   -10.62289   -10.59940
   -10.58207   -10.58145   -10.57737   -10.57655   -10.57585   -10.57551
   -10.57442   -10.57440   -10.57396   -10.57317   -10.57185   -10.56774
   -10.56743   -10.56674   -10.56543   -10.56487   -10.56148   -10.55782
   -10.55719   -10.55700   -10.55620   -10.55600   -10.55595   -10.55484
   -10.55394   -10.55266   -10.55126   -10.55121   -10.55106   -10.54971
   -10.54940   -10.54912   -10.54911   -10.54893   -10.54818   -10.54800
   -10.54774   -10.54771   -10.54767   -10.54736   -10.54695   -10.54637
   -10.54623   -10.54545   -10.54453   -10.54440   -10.54404   -10.54313
   -10.54297   -10.54259   -10.54216   -10.54177   -10.54160   -10.53995
   -10.53987   -10.53918   -10.53886   -10.53806   -10.53787   -10.53415
   -10.53305   -10.53220   -10.53003   -10.52831   -10.52784   -10.50729
   -10.50589    -8.46849    -7.00688    -6.39040    -6.38969    -6.38881
    -5.54172    -5.54025    -5.12501    -5.12448    -5.12316    -3.85158
    -3.85112    -3.85099    -3.85025    -3.84966    -3.84942    -1.24472
    -1.23562    -1.19559    -1.15968    -1.12562    -1.09061    -1.07443
    -1.05420    -1.05152    -0.98872    -0.97519    -0.97242    -0.94610
    -0.94382    -0.94234    -0.93797    -0.93606    -0.93453    -0.92768
    -0.91691    -0.91599    -0.89526    -0.88848    -0.87432    -0.85844
    -0.85821    -0.84698    -0.84474    -0.83860    -0.83750    -0.83721
    -0.83554    -0.83441    -0.83364    -0.82944    -0.82919    -0.82867
    -0.82730    -0.82586    -0.82364    -0.82334    -0.82103    -0.80607
    -0.79374    -0.78379    -0.75907    -0.74383    -0.72966    -0.71685
    -0.71223    -0.70951    -0.70144    -0.69367    -0.69265    -0.68333
    -0.68109    -0.67744    -0.67649    -0.67363    -0.67244    -0.66842
    -0.66669    -0.66522    -0.66226    -0.66055    -0.65806    -0.65691
    -0.65660    -0.65307    -0.64029    -0.63512    -0.62730    -0.62167
    -0.61606    -0.61012    -0.60519    -0.60360    -0.60259    -0.59744
    -0.59305    -0.58467    -0.58201    -0.57996    -0.57714    -0.57484
    -0.57435    -0.57097    -0.56364    -0.56137    -0.56075    -0.55733
    -0.55105    -0.54460    -0.54029    -0.53489    -0.53179    -0.52648
    -0.52620    -0.52349    -0.52168    -0.51819    -0.51590    -0.51344
    -0.51233    -0.51124    -0.50872    -0.50490    -0.50451    -0.50406
    -0.50111    -0.50075    -0.49950    -0.49899    -0.49664    -0.49585
    -0.49368    -0.49322    -0.49267    -0.49113    -0.48724    -0.48495
    -0.48358    -0.48192    -0.48160    -0.47990    -0.47853    -0.47610
    -0.47447    -0.47335    -0.47206    -0.46858    -0.45921    -0.45874
    -0.45667    -0.45296    -0.45206    -0.45054    -0.44894    -0.44844
    -0.44684    -0.44487    -0.44160    -0.43789    -0.43656    -0.43456
    -0.42907    -0.42866    -0.42751    -0.42508    -0.42435    -0.42260
    -0.42126    -0.41951    -0.41831    -0.41553    -0.41350    -0.41088
    -0.40709    -0.40468    -0.40230    -0.39913    -0.39759    -0.39396
    -0.39227    -0.39166    -0.39080    -0.38959    -0.38854    -0.38354
    -0.38340    -0.38276    -0.38159    -0.37881    -0.37564    -0.37083
    -0.36484    -0.35675    -0.35604    -0.35457    -0.34839    -0.34421
    -0.34180    -0.34107    -0.33835    -0.33506    -0.33224    -0.33120
    -0.32119    -0.31462    -0.30537    -0.30411    -0.30266    -0.30127
    -0.29864    -0.29674    -0.29528    -0.29330    -0.29240    -0.29177
    -0.29120    -0.28959    -0.28726    -0.28480    -0.27890    -0.27220
    -0.25823    -0.23357    -0.05222    -0.02440    -0.01011    -0.00569
     0.00526     0.00785     0.01369     0.01553     0.01667     0.01804
 
  Peak memory usage:   1020 Mb
  
  end of program scf
   
 Time(scf)  user:     7025.8  user+sys:     7025.8  wallclock:     7430.9
  
  start of program sole
  
    SCRF                   solvation energy
  iteration          Hartrees            kcal/mol
     0               0.0000000            0.0000
     1              -0.0169374          -10.6284
  
  solvation energy not yet converged... 
  
  Peak memory usage:    812 Mb
  
  end of program sole
   
 Time(sole)  user:        0.2  user+sys:        0.2  wallclock:        0.1
  
  start of program ch
  
  gridpoints used for charge fit        16529
    out of a possible maximum of        16529
  
   Electrostatic potential fitting constrained to reproduce
     total charge:                yes
     dipole moment:               no 
     traceless quadrupole moment: no 
     traceless octapole moment:   no 
  
  Atomic charges from electrostatic potential: 
   
 Atom       C1           C2           C3           C4           C5      
 Charge   -0.11847     -0.01922     -0.19368      0.24422      0.04472
   
 Atom       C6           C7           C8           C9           C10     
 Charge   -0.26078     -0.41257     -0.08998      0.08005     -0.25941
   
 Atom       C11          O12          Si13         C14          C15     
 Charge    0.09852     -0.20015     -0.06824      0.10822      0.26674
   
 Atom       C16          C17          C18          C19          C20     
 Charge    0.25119     -0.14692     -0.45056     -0.26449      0.06405
   
 Atom       Si21         O22          C23          C24          P25     
 Charge   -0.02624     -0.30528     -0.17664     -0.10254      0.88132
   
 Atom       O26          O27          C28          C29          C30     
 Charge   -0.52854     -0.54039      0.04697      0.11409      0.04435
   
 Atom       C31          C32          C33          C34          C35     
 Charge    0.02144      0.24670      0.01796      0.00783     -0.14912
   
 Atom       C36          C37          C38          C39          C40     
 Charge   -0.17483     -0.16914     -0.15819     -0.08940     -0.09621
   
 Atom       C41          C42          C43          C44          C45     
 Charge   -0.14458     -0.08741     -0.27094     -0.10572     -0.11303
   
 Atom       C46          C47          C48          C49          C50     
 Charge   -0.24212     -0.11225     -0.13391     -0.12857     -0.15303
   
 Atom       C51          C52          C53          C54          C55     
 Charge   -0.12976     -0.16440     -0.11935     -0.14840     -0.20353
   
 Atom       C56          C57          C58          C59          C60     
 Charge   -0.08532     -0.15531     -0.19897     -0.13693     -0.08013
   
 Atom       C61          C62          C63          C64          C65     
 Charge   -0.14736     -0.14758     -0.14657     -0.15437     -0.17990
   
 Atom       C66          C67          C68          C69          C70     
 Charge    0.05213      0.10356     -0.22244     -0.06629      0.09305
   
 Atom       N71          S72          O73          O74          C75     
 Charge   -0.33303      0.54098     -0.41829     -0.32922      0.60081
   
 Atom       C76          C77          C78          C79          N80     
 Charge   -0.51585      0.26544     -0.52714      0.47599     -0.65239
   
 Atom       N81          C82          C83          C84          C85     
 Charge    0.17147     -0.16888     -0.35105     -0.12438     -0.26685
   
 Atom       H86          H87          H88          H89          H90     
 Charge    0.13451      0.15611      0.15775      0.20433      0.13919
   
 Atom       H91          H92          H93          H94          H95     
 Charge    0.12591      0.21790      0.15988      0.15422      0.13813
   
 Atom       H96          H97          H98          H99          H100    
 Charge    0.37253      0.07777      0.13510      0.13025      0.10974
   
 Atom       H101         H102         H103         H104         H105    
 Charge    0.13885      0.09209      0.11858      0.12488      0.10173
   
 Atom       H106         H107         H108         H109         H110    
 Charge    0.13766      0.10736      0.07114      0.15673      0.13281
   
 Atom       H111         H112         H113         H114         H115    
 Charge    0.13065      0.13556      0.14025      0.13794      0.13474
   
 Atom       H116         H117         H118         H119         H120    
 Charge    0.12408      0.12592      0.14208      0.11860      0.12709
   
 Atom       H121         H122         H123         H124         H125    
 Charge    0.15504      0.13793      0.08961      0.13685      0.13966
   
 Atom       H126         H127         H128         H129         H130    
 Charge    0.14268      0.15389      0.16236      0.07137      0.14745
   
 Atom       H131         H132         H133         H134         H135    
 Charge    0.13914      0.14569      0.23072      0.08897      0.21198
   
 Atom       H136         H137         H138         H139         H140    
 Charge    0.04650      0.13209      0.13836      0.17882      0.12262
   
 Atom       H141    
 Charge    0.14066
  
  sum of atomic charges:    -0.000000
   
 RMS Error   1.04E-03 hartrees
 
  Peak memory usage:    811 Mb
  
  end of program ch
   
 Time(ch)  user:       17.4  user+sys:       17.4  wallclock:       19.4
  
  start of program post
  
  Writing input files for PBF
  Peak memory usage:    757 Mb
  
  end of program post
   
 Time(post)  user:        0.8  user+sys:        0.8  wallclock:        1.0

  start of program pbf

Pbf Version 4.10

Molecular surface area:      841.47232   [A2]
Reaction field energy:       -18.16501   [kT]
  Peak memory usage: 719 Mb

  end of program pbf

 Time(pbf)  user:       15.8  user+sys:       15.9  wallclock:       16.4
  
  start of program solv
  
   number of surface charges from PBF   13350
   sum of surface charges     -0.00039
   
  nuclear repulsion energy.......   17206.221407305 hartrees
  Peak memory usage:    887 Mb
  
  end of program solv
   
 Time(solv)  user:       32.7  user+sys:       32.7  wallclock:       33.5
  
  start of program scf
  
 Energy computed with NOPS off.
  
       i  u  d  i  g                   
       t  p  i  c  r                                 RMS    maximum
       e  d  i  u  i                       energy  density   DIIS  
       r  t  s  t  d       total energy    change  change    error 
  
etot    1  N  N  1  U   -4710.09372528704           6.4E-06  8.9E-05
etot    2  N  N  1  U   -4710.09373140607  6.1E-06  0.0E+00  0.0E+00
  
  
 Energy components, in hartrees:
   (A)  Total zero-electron terms....   17208.86731394640
   (B)    Nuclear-nuclear............   17206.22140730518
   (C)    Nuclear-solvent............       2.64590664122
   (E)  Total one-electron terms.....  -40753.78434976352
   (F)    Electron-nuclear...........  -45426.53302840476
   (G)    Electron-solvent...........      -2.68424442131
   (H)    Kinetic....................    4675.43292306255
   (I)  Total two-electron terms.....   18834.82330441105
   (J)    Coulomb....................   19408.16182502235
   (K)    Exchange+Correlation.......    -573.33852061130
   (L)  Electronic energy............  -21918.96104535247  (E+I)
   (N)  Total quantum mech. energy...   -4710.09373140607  (A+L)
   (O)  Gas phase energy.............   -4710.05657601194
   (P)  Solution phase energy........   -4710.07456251602  (Q+R+S)
   (Q)    Total solute energy........   -4710.05539362598  (N-C-G)
   (R)    Total solvent energy.......      -0.01916889004  (C/2+G/2)
   (S)    Solute cavity energy.......       0.00000000000
   (U)  Reorganization energy........       0.00118238596  (Q-O)
   (V)  Solvation energy.............      -0.01798650408  (P-O)
  
 SCFE:  Solution phase energy: DFT(m06-2x)      -4710.07456251602 hartrees
        SCF iterations:   2
  
 
 HOMO energy:    -0.27955
 LUMO energy:    -0.05228
 
  Orbital energies (hartrees): 
   -76.43928   -59.36899   -48.44869   -45.85447   -43.59912   -39.45456
   -31.24715   -19.50829   -17.02423   -14.30941   -14.11486   -13.58779
   -13.57960   -12.48610   -11.83454   -11.70254   -11.64262   -11.60502
   -11.46993   -11.26381   -11.18098   -11.02451   -10.98112   -10.94935
   -10.86362   -10.77111   -10.70371   -10.70120   -10.69740   -10.66558
   -10.64381   -10.59544   -10.56649   -10.56441   -10.54483   -10.54363
   -10.53704   -10.53700   -10.53572   -10.52990   -10.52283   -10.52178
   -10.51954   -10.51932   -10.51700   -10.51304   -10.48973   -10.48875
   -10.48767   -10.47842   -10.46643   -10.46030   -10.45806   -10.43442
   -10.42982   -10.42002   -10.40038   -10.35830   -10.35286   -10.34429
   -10.33565   -10.33190   -10.31569   -10.30888   -10.30317   -10.29144
   -10.28598   -10.28254   -10.26701   -10.23082   -10.20924   -10.20630
   -10.17592    -9.95994    -9.91365    -9.89713    -9.89598    -9.88247
    -9.69133    -9.67612    -9.25687    -9.17265    -9.15816    -9.13216
    -8.98843    -8.84584    -8.84102    -8.64041    -8.62549    -8.48566
    -8.29369    -7.80886    -7.75324    -7.71835    -7.28800    -6.81433
    -6.69098    -6.52166    -6.00516    -4.52269    -4.40971    -1.28934
    -1.21554    -1.21272    -1.14790    -1.08929    -1.05147    -0.99666
    -0.96826    -0.96715    -0.95948    -0.95101    -0.92185    -0.90848
    -0.90804    -0.90698    -0.90549    -0.90174    -0.89460    -0.89384
    -0.89333    -0.88525    -0.88497    -0.88052    -0.87336    -0.86205
    -0.85980    -0.85941    -0.84941    -0.83130    -0.82072    -0.81518
    -0.80109    -0.79963    -0.77785    -0.77360    -0.77117    -0.76873
    -0.76542    -0.76200    -0.75161    -0.75112    -0.74046    -0.73485
    -0.73120    -0.73092    -0.72153    -0.71214    -0.71017    -0.70167
    -0.67601    -0.67330    -0.66731    -0.66326    -0.65097    -0.64703
    -0.64434    -0.64191    -0.63862    -0.63639    -0.63501    -0.62756
    -0.62577    -0.62545    -0.62498    -0.61698    -0.61267    -0.60937
    -0.60535    -0.60004    -0.59596    -0.59433    -0.59384    -0.59303
    -0.59138    -0.59119    -0.58942    -0.58684    -0.58294    -0.57969
    -0.57640    -0.57363    -0.57321    -0.57277    -0.57083    -0.56807
    -0.56485    -0.55860    -0.55801    -0.55485    -0.55052    -0.54782
    -0.54713    -0.54221    -0.54026    -0.53912    -0.53885    -0.53847
    -0.53790    -0.53763    -0.53082    -0.52647    -0.52505    -0.52189
    -0.52188    -0.51946    -0.51773    -0.51263    -0.51249    -0.51160
    -0.51102    -0.51051    -0.50993    -0.50990    -0.50976    -0.50857
    -0.50796    -0.50668    -0.50575    -0.50527    -0.50517    -0.50445
    -0.50433    -0.50376    -0.50104    -0.49948    -0.49848    -0.49787
    -0.49200    -0.49186    -0.48988    -0.48894    -0.48881    -0.48860
    -0.48765    -0.48372    -0.48356    -0.48239    -0.48205    -0.48140
    -0.47967    -0.47854    -0.47829    -0.47784    -0.47575    -0.47329
    -0.47306    -0.46981    -0.46587    -0.46507    -0.46381    -0.46248
    -0.46212    -0.46152    -0.45857    -0.45683    -0.45625    -0.45558
    -0.45472    -0.45409    -0.45347    -0.45335    -0.45305    -0.45245
    -0.45125    -0.45108    -0.44980    -0.44851    -0.44494    -0.44269
    -0.44037    -0.43797    -0.43743    -0.43405    -0.43322    -0.43286
    -0.43163    -0.42747    -0.42502    -0.42450    -0.41283    -0.40988
    -0.40881    -0.40567    -0.40417    -0.40348    -0.40290    -0.39947
    -0.39935    -0.39039    -0.38673    -0.38579    -0.38262    -0.37725
    -0.36963    -0.36620    -0.36107    -0.36105    -0.35781    -0.34792
    -0.34716    -0.34660    -0.33958    -0.33611    -0.30740    -0.29105
    -0.28757    -0.27955    -0.05228    -0.02414    -0.01024    -0.00549
     0.00559     0.00791     0.01388     0.01578     0.01679     0.01821
 
  Peak memory usage:   1020 Mb
  
  end of program scf
   
 Time(scf)  user:     2346.0  user+sys:     2346.0  wallclock:     2483.0
  
  start of program sole
  
    SCRF                   solvation energy
  iteration          Hartrees            kcal/mol
     0               0.0000000            0.0000
     1              -0.0169374          -10.6284
     2              -0.0179865          -11.2867
  
  solvation energy not yet converged... 
  
  Peak memory usage:    812 Mb
  
  end of program sole
   
 Time(sole)  user:        0.2  user+sys:        0.2  wallclock:        0.1
  
  start of program ch
  
  gridpoints used for charge fit        16529
    out of a possible maximum of        16529
  
   Electrostatic potential fitting constrained to reproduce
     total charge:                yes
     dipole moment:               no 
     traceless quadrupole moment: no 
     traceless octapole moment:   no 
  
  Atomic charges from electrostatic potential: 
   
 Atom       C1           C2           C3           C4           C5      
 Charge   -0.11962     -0.02015     -0.19355      0.24419      0.04556
   
 Atom       C6           C7           C8           C9           C10     
 Charge   -0.26127     -0.41467     -0.08978      0.07586     -0.26205
   
 Atom       C11          O12          Si13         C14          C15     
 Charge    0.10292     -0.19682     -0.06987      0.10975      0.26405
   
 Atom       C16          C17          C18          C19          C20     
 Charge    0.24979     -0.14841     -0.45059     -0.26469      0.06743
   
 Atom       Si21         O22          C23          C24          P25     
 Charge   -0.02895     -0.30374     -0.17597     -0.10243      0.87855
   
 Atom       O26          O27          C28          C29          C30     
 Charge   -0.52772     -0.54016      0.04847      0.11365      0.04487
   
 Atom       C31          C32          C33          C34          C35     
 Charge    0.02036      0.24719      0.01824      0.00551     -0.14928
   
 Atom       C36          C37          C38          C39          C40     
 Charge   -0.17569     -0.16980     -0.16058     -0.08995     -0.09685
   
 Atom       C41          C42          C43          C44          C45     
 Charge   -0.14532     -0.08866     -0.27362     -0.10661     -0.11506
   
 Atom       C46          C47          C48          C49          C50     
 Charge   -0.24274     -0.11340     -0.13423     -0.12938     -0.15401
   
 Atom       C51          C52          C53          C54          C55     
 Charge   -0.13058     -0.16458     -0.11965     -0.15004     -0.20368
   
 Atom       C56          C57          C58          C59          C60     
 Charge   -0.08536     -0.15668     -0.19920     -0.13744     -0.07854
   
 Atom       C61          C62          C63          C64          C65     
 Charge   -0.14779     -0.14829     -0.14672     -0.15477     -0.17788
   
 Atom       C66          C67          C68          C69          C70     
 Charge    0.04925      0.10334     -0.22377     -0.06516      0.09450
   
 Atom       N71          S72          O73          O74          C75     
 Charge   -0.33327      0.54167     -0.41999     -0.33158      0.60052
   
 Atom       C76          C77          C78          C79          N80     
 Charge   -0.51886      0.26521     -0.52634      0.47625     -0.65332
   
 Atom       N81          C82          C83          C84          C85     
 Charge    0.17269     -0.16883     -0.35276     -0.12547     -0.26503
   
 Atom       H86          H87          H88          H89          H90     
 Charge    0.13513      0.15697      0.15826      0.20569      0.14016
   
 Atom       H91          H92          H93          H94          H95     
 Charge    0.12660      0.21901      0.16027      0.15512      0.13906
   
 Atom       H96          H97          H98          H99          H100    
 Charge    0.37231      0.07775      0.13507      0.13055      0.11012
   
 Atom       H101         H102         H103         H104         H105    
 Charge    0.13968      0.09186      0.11891      0.12482      0.10216
   
 Atom       H106         H107         H108         H109         H110    
 Charge    0.13789      0.10781      0.07174      0.15765      0.13414
   
 Atom       H111         H112         H113         H114         H115    
 Charge    0.13133      0.13663      0.14146      0.13899      0.13585
   
 Atom       H116         H117         H118         H119         H120    
 Charge    0.12511      0.12644      0.14296      0.11971      0.12802
   
 Atom       H121         H122         H123         H124         H125    
 Charge    0.15557      0.13882      0.08982      0.13787      0.14083
   
 Atom       H126         H127         H128         H129         H130    
 Charge    0.14366      0.15482      0.16273      0.07165      0.14803
   
 Atom       H131         H132         H133         H134         H135    
 Charge    0.13995      0.14605      0.23177      0.09009      0.21325
   
 Atom       H136         H137         H138         H139         H140    
 Charge    0.04714      0.13164      0.13877      0.17930      0.12279
   
 Atom       H141    
 Charge    0.14154
  
  sum of atomic charges:     0.000000
   
 RMS Error   1.04E-03 hartrees
 
  Peak memory usage:    811 Mb
  
  end of program ch
   
 Time(ch)  user:       17.0  user+sys:       17.0  wallclock:       20.5
  
  start of program post
  
  Writing input files for PBF
  Peak memory usage:    758 Mb
  
  end of program post
   
 Time(post)  user:        0.7  user+sys:        0.7  wallclock:        1.0

  start of program pbf

Pbf Version 4.10

Molecular surface area:      841.47232   [A2]
Reaction field energy:       -18.46180   [kT]
  Peak memory usage: 719 Mb

  end of program pbf

 Time(pbf)  user:       16.6  user+sys:       16.7  wallclock:       17.1
  
  start of program solv
  
   number of surface charges from PBF   13350
   sum of surface charges     -0.00040
   
  nuclear repulsion energy.......   17206.221407305 hartrees
  Peak memory usage:    887 Mb
  
  end of program solv
   
 Time(solv)  user:       32.8  user+sys:       32.8  wallclock:       35.3
  
  start of program scf
  
 Energy computed with NOPS off.
  
       i  u  d  i  g                   
       t  p  i  c  r                                 RMS    maximum
       e  d  i  u  i                       energy  density   DIIS  
       r  t  s  t  d       total energy    change  change    error 
  
etot    1  N  N  1  U   -4710.09403923507           5.2E-06  1.5E-04
etot    2  N  N  1  U   -4710.09402928673 -9.9E-06  0.0E+00  0.0E+00
  
  
 Energy components, in hartrees:
   (A)  Total zero-electron terms....   17208.91545488965
   (B)    Nuclear-nuclear............   17206.22140730518
   (C)    Nuclear-solvent............       2.69404758447
   (E)  Total one-electron terms.....  -40753.54428353086
   (F)    Electron-nuclear...........  -45426.19361949702
   (G)    Electron-solvent...........      -2.73266277524
   (H)    Kinetic....................    4675.38199874139
   (I)  Total two-electron terms.....   18834.53479935449
   (J)    Coulomb....................   19407.86573913981
   (K)    Exchange+Correlation.......    -573.33093978533
   (L)  Electronic energy............  -21919.00948417638  (E+I)
   (N)  Total quantum mech. energy...   -4710.09402928673  (A+L)
   (O)  Gas phase energy.............   -4710.05657601194
   (P)  Solution phase energy........   -4710.07472169134  (Q+R+S)
   (Q)    Total solute energy........   -4710.05541409596  (N-C-G)
   (R)    Total solvent energy.......      -0.01930759539  (C/2+G/2)
   (S)    Solute cavity energy.......       0.00000000000
   (U)  Reorganization energy........       0.00116191598  (Q-O)
   (V)  Solvation energy.............      -0.01814567940  (P-O)
  
 SCFE:  Solution phase energy: DFT(m06-2x)      -4710.07472169134 hartrees
        SCF iterations:   2
  
 
 HOMO energy:    -0.23387
 LUMO energy:    -0.05220
 
  Orbital energies (hartrees): 
   -90.15694   -78.22878   -67.01065   -67.01025   -19.70266   -19.69916
   -19.66853   -19.64672   -19.64642   -19.61553   -14.80827   -14.78194
   -14.77350   -10.63927   -10.63309   -10.62970   -10.62356   -10.59908
   -10.58201   -10.58124   -10.57825   -10.57732   -10.57619   -10.57523
   -10.57501   -10.57499   -10.57369   -10.57225   -10.57213   -10.56768
   -10.56662   -10.56647   -10.56544   -10.56488   -10.56154   -10.55811
   -10.55685   -10.55684   -10.55602   -10.55591   -10.55567   -10.55435
   -10.55336   -10.55309   -10.55174   -10.55127   -10.55087   -10.55008
   -10.54966   -10.54927   -10.54927   -10.54884   -10.54830   -10.54821
   -10.54804   -10.54794   -10.54781   -10.54770   -10.54766   -10.54678
   -10.54674   -10.54555   -10.54537   -10.54501   -10.54396   -10.54351
   -10.54343   -10.54262   -10.54257   -10.54212   -10.54200   -10.54020
   -10.54009   -10.54002   -10.53930   -10.53895   -10.53820   -10.53447
   -10.53321   -10.53310   -10.53157   -10.52928   -10.52877   -10.50772
   -10.50631    -8.46902    -7.00756    -6.39093    -6.39023    -6.38934
    -5.54193    -5.54126    -5.12569    -5.12516    -5.12385    -3.85179
    -3.85133    -3.85126    -3.85120    -3.85068    -3.85044    -1.24540
    -1.23669    -1.19635    -1.16027    -1.12694    -1.09109    -1.07465
    -1.05450    -1.05185    -0.98916    -0.97477    -0.97267    -0.94630
    -0.94430    -0.94250    -0.93868    -0.93632    -0.93518    -0.92785
    -0.91700    -0.91616    -0.89562    -0.88865    -0.87407    -0.85822
    -0.85818    -0.84736    -0.84502    -0.83889    -0.83786    -0.83746
    -0.83598    -0.83459    -0.83407    -0.82984    -0.82965    -0.82886
    -0.82797    -0.82609    -0.82431    -0.82358    -0.82167    -0.80633
    -0.79398    -0.78409    -0.75952    -0.74379    -0.72982    -0.71719
    -0.71261    -0.70925    -0.70172    -0.69400    -0.69255    -0.68352
    -0.68136    -0.67794    -0.67670    -0.67400    -0.67258    -0.66905
    -0.66691    -0.66587    -0.66247    -0.66107    -0.65827    -0.65714
    -0.65709    -0.65340    -0.64068    -0.63554    -0.62754    -0.62192
    -0.61641    -0.61046    -0.60550    -0.60397    -0.60292    -0.59768
    -0.59327    -0.58492    -0.58221    -0.58013    -0.57760    -0.57501
    -0.57488    -0.57133    -0.56385    -0.56161    -0.56102    -0.55722
    -0.55143    -0.54501    -0.54065    -0.53520    -0.53248    -0.52677
    -0.52641    -0.52391    -0.52147    -0.51835    -0.51635    -0.51377
    -0.51256    -0.51168    -0.50896    -0.50508    -0.50465    -0.50414
    -0.50160    -0.50054    -0.49962    -0.49904    -0.49679    -0.49646
    -0.49390    -0.49365    -0.49290    -0.49180    -0.48742    -0.48500
    -0.48373    -0.48210    -0.48200    -0.48030    -0.47899    -0.47639
    -0.47468    -0.47376    -0.47240    -0.46899    -0.45944    -0.45906
    -0.45689    -0.45314    -0.45219    -0.45088    -0.44929    -0.44868
    -0.44714    -0.44539    -0.44206    -0.43832    -0.43694    -0.43485
    -0.42932    -0.42877    -0.42763    -0.42537    -0.42464    -0.42284
    -0.42150    -0.41981    -0.41874    -0.41594    -0.41387    -0.41078
    -0.40735    -0.40499    -0.40240    -0.40000    -0.39780    -0.39415
    -0.39292    -0.39190    -0.39096    -0.39057    -0.38905    -0.38400
    -0.38374    -0.38330    -0.38196    -0.37971    -0.37621    -0.37133
    -0.36531    -0.35728    -0.35644    -0.35473    -0.34874    -0.34448
    -0.34226    -0.34157    -0.33914    -0.33559    -0.33246    -0.33140
    -0.32078    -0.31441    -0.30560    -0.30435    -0.30319    -0.30175
    -0.29884    -0.29695    -0.29559    -0.29403    -0.29271    -0.29250
    -0.29173    -0.29033    -0.28755    -0.28547    -0.27914    -0.27260
    -0.25855    -0.23387    -0.05220    -0.02473    -0.01032    -0.00590
     0.00484     0.00764     0.01345     0.01541     0.01651     0.01757
 
  Peak memory usage:   1020 Mb
  
  end of program scf
   
 Time(scf)  user:     2342.5  user+sys:     2342.5  wallclock:     2484.1
  
  start of program sole
  
    SCRF                   solvation energy
  iteration          Hartrees            kcal/mol
     0               0.0000000            0.0000
     1              -0.0169374          -10.6284
     2              -0.0179865          -11.2867
     3              -0.0181457          -11.3866
  
  solvation energy not yet converged... 
  
  Peak memory usage:    812 Mb
  
  end of program sole
   
 Time(sole)  user:        0.1  user+sys:        0.1  wallclock:        0.2
  
  start of program ch
  
  gridpoints used for charge fit        16529
    out of a possible maximum of        16529
  
   Electrostatic potential fitting constrained to reproduce
     total charge:                yes
     dipole moment:               no 
     traceless quadrupole moment: no 
     traceless octapole moment:   no 
  
  Atomic charges from electrostatic potential: 
   
 Atom       C1           C2           C3           C4           C5      
 Charge   -0.11808     -0.01831     -0.19498      0.24421      0.04539
   
 Atom       C6           C7           C8           C9           C10     
 Charge   -0.26148     -0.41527     -0.09063      0.07795     -0.25966
   
 Atom       C11          O12          Si13         C14          C15     
 Charge    0.10180     -0.19842     -0.07119      0.10882      0.26613
   
 Atom       C16          C17          C18          C19          C20     
 Charge    0.25041     -0.14645     -0.45235     -0.26495      0.06681
   
 Atom       Si21         O22          C23          C24          P25     
 Charge   -0.02940     -0.30315     -0.17815     -0.10319      0.87925
   
 Atom       O26          O27          C28          C29          C30     
 Charge   -0.52857     -0.54041      0.04809      0.11346      0.04566
   
 Atom       C31          C32          C33          C34          C35     
 Charge    0.02364      0.24971      0.01804      0.00720     -0.14994
   
 Atom       C36          C37          C38          C39          C40     
 Charge   -0.17454     -0.16921     -0.15939     -0.09023     -0.09808
   
 Atom       C41          C42          C43          C44          C45     
 Charge   -0.14500     -0.08805     -0.27243     -0.10583     -0.11286
   
 Atom       C46          C47          C48          C49          C50     
 Charge   -0.24226     -0.11346     -0.13386     -0.12922     -0.15361
   
 Atom       C51          C52          C53          C54          C55     
 Charge   -0.13051     -0.16454     -0.12005     -0.14929     -0.20374
   
 Atom       C56          C57          C58          C59          C60     
 Charge   -0.08648     -0.15653     -0.19936     -0.13835     -0.08056
   
 Atom       C61          C62          C63          C64          C65     
 Charge   -0.14799     -0.14846     -0.14751     -0.15556     -0.17915
   
 Atom       C66          C67          C68          C69          C70     
 Charge    0.04936      0.10573     -0.22351     -0.06565      0.09344
   
 Atom       N71          S72          O73          O74          C75     
 Charge   -0.33263      0.53901     -0.42099     -0.32647      0.60136
   
 Atom       C76          C77          C78          C79          N80     
 Charge   -0.51718      0.26680     -0.52794      0.47653     -0.65597
   
 Atom       N81          C82          C83          C84          C85     
 Charge    0.17314     -0.16855     -0.35206     -0.12497     -0.26723
   
 Atom       H86          H87          H88          H89          H90     
 Charge    0.13454      0.15708      0.15821      0.20521      0.14028
   
 Atom       H91          H92          H93          H94          H95     
 Charge    0.12592      0.21854      0.16031      0.15543      0.13924
   
 Atom       H96          H97          H98          H99          H100    
 Charge    0.37296      0.07771      0.13499      0.13013      0.10952
   
 Atom       H101         H102         H103         H104         H105    
 Charge    0.13937      0.09191      0.11896      0.12465      0.10174
   
 Atom       H106         H107         H108         H109         H110    
 Charge    0.13773      0.10726      0.07058      0.15740      0.13394
   
 Atom       H111         H112         H113         H114         H115    
 Charge    0.13117      0.13636      0.14115      0.13878      0.13572
   
 Atom       H116         H117         H118         H119         H120    
 Charge    0.12489      0.12610      0.14277      0.11960      0.12766
   
 Atom       H121         H122         H123         H124         H125    
 Charge    0.15534      0.13875      0.08990      0.13769      0.14065
   
 Atom       H126         H127         H128         H129         H130    
 Charge    0.14355      0.15511      0.16307      0.07093      0.14785
   
 Atom       H131         H132         H133         H134         H135    
 Charge    0.14016      0.14588      0.23185      0.08957      0.21343
   
 Atom       H136         H137         H138         H139         H140    
 Charge    0.04709      0.13172      0.13840      0.17900      0.12264
   
 Atom       H141    
 Charge    0.14152
  
  sum of atomic charges:     0.000000
   
 RMS Error   1.04E-03 hartrees
 
  Peak memory usage:    811 Mb
  
  end of program ch
   
 Time(ch)  user:       16.7  user+sys:       16.7  wallclock:       19.0
  
  start of program post
  
  Writing input files for PBF
  Peak memory usage:    757 Mb
  
  end of program post
   
 Time(post)  user:        0.8  user+sys:        0.8  wallclock:        2.8

  start of program pbf

Pbf Version 4.10

Molecular surface area:      841.47232   [A2]
Reaction field energy:       -18.43233   [kT]
  Peak memory usage: 719 Mb

  end of program pbf

 Time(pbf)  user:       16.0  user+sys:       16.1  wallclock:       16.4
  
  start of program solv
  
   number of surface charges from PBF   13350
   sum of surface charges     -0.00040
   
  nuclear repulsion energy.......   17206.221407305 hartrees
  Peak memory usage:    887 Mb
  
  end of program solv
   
 Time(solv)  user:       32.8  user+sys:       32.8  wallclock:       33.7
  
  start of program scf
  
 Energy computed with NOPS off.
  
       i  u  d  i  g                   
       t  p  i  c  r                                 RMS    maximum
       e  d  i  u  i                       energy  density   DIIS  
       r  t  s  t  d       total energy    change  change    error 
  
etot    1  N  N  1  U   -4710.09399590518           8.0E-06  2.6E-04
etot    2  N  N  1  U   -4710.09396179688 -3.4E-05  0.0E+00  0.0E+00
  
  
 Energy components, in hartrees:
   (A)  Total zero-electron terms....   17208.89803750860
   (B)    Nuclear-nuclear............   17206.22140730518
   (C)    Nuclear-solvent............       2.67663020342
   (E)  Total one-electron terms.....  -40753.90685881708
   (F)    Electron-nuclear...........  -45426.61636098515
   (G)    Electron-solvent...........      -2.71522101670
   (H)    Kinetic....................    4675.42472318477
   (I)  Total two-electron terms.....   18834.91485951160
   (J)    Coulomb....................   19408.25253307696
   (K)    Exchange+Correlation.......    -573.33767356537
   (L)  Electronic energy............  -21918.99199930548  (E+I)
   (N)  Total quantum mech. energy...   -4710.09396179688  (A+L)
   (O)  Gas phase energy.............   -4710.05657601194
   (P)  Solution phase energy........   -4710.07466639024  (Q+R+S)
   (Q)    Total solute energy........   -4710.05537098360  (N-C-G)
   (R)    Total solvent energy.......      -0.01929540664  (C/2+G/2)
   (S)    Solute cavity energy.......       0.00000000000
   (U)  Reorganization energy........       0.00120502834  (Q-O)
   (V)  Solvation energy.............      -0.01809037830  (P-O)
  
 SCFE:  Solution phase energy: DFT(m06-2x)      -4710.07466639024 hartrees
        SCF iterations:   2
  
 
 HOMO energy:    -0.23395
 LUMO energy:    -0.05251
 
  Orbital energies (hartrees): 
   -90.15750   -78.22681   -67.01096   -67.00798   -19.69875   -19.69864
   -19.66762   -19.64981   -19.63309   -19.61520   -14.80770   -14.78614
   -14.77290   -10.64119   -10.62898   -10.62798   -10.62389   -10.60054
   -10.58173   -10.58024   -10.57666   -10.57498   -10.57457   -10.57410
   -10.57284   -10.57273   -10.57266   -10.57180   -10.57081   -10.56781
   -10.56709   -10.56595   -10.56574   -10.56553   -10.56234   -10.55709
   -10.55667   -10.55657   -10.55640   -10.55633   -10.55602   -10.55508
   -10.55447   -10.55209   -10.55075   -10.55068   -10.55033   -10.54970
   -10.54948   -10.54900   -10.54869   -10.54845   -10.54821   -10.54762
   -10.54756   -10.54750   -10.54720   -10.54680   -10.54653   -10.54606
   -10.54602   -10.54540   -10.54387   -10.54345   -10.54339   -10.54321
   -10.54268   -10.54213   -10.54202   -10.54140   -10.54113   -10.54113
   -10.53971   -10.53907   -10.53793   -10.53741   -10.53725   -10.53474
   -10.53399   -10.53163   -10.52843   -10.52763   -10.52571   -10.50731
   -10.50642    -8.46934    -7.00566    -6.39127    -6.39055    -6.38969
    -5.54220    -5.53899    -5.12378    -5.12325    -5.12194    -3.85206
    -3.85160    -3.85147    -3.84899    -3.84840    -3.84817    -1.24345
    -1.23519    -1.19411    -1.15887    -1.12473    -1.09000    -1.07600
    -1.05476    -1.05169    -0.98775    -0.97507    -0.97194    -0.94602
    -0.94360    -0.94216    -0.93767    -0.93592    -0.93376    -0.92711
    -0.91640    -0.91556    -0.89472    -0.88866    -0.87439    -0.85814
    -0.85780    -0.84640    -0.84450    -0.83835    -0.83757    -0.83712
    -0.83533    -0.83424    -0.83315    -0.82930    -0.82896    -0.82841
    -0.82670    -0.82575    -0.82321    -0.82318    -0.82033    -0.80561
    -0.79367    -0.78411    -0.75828    -0.74391    -0.72972    -0.71622
    -0.71143    -0.70943    -0.70101    -0.69313    -0.69252    -0.68323
    -0.68056    -0.67709    -0.67637    -0.67339    -0.67233    -0.66808
    -0.66665    -0.66460    -0.66218    -0.66033    -0.65793    -0.65664
    -0.65639    -0.65244    -0.63985    -0.63499    -0.62752    -0.62115
    -0.61638    -0.60978    -0.60457    -0.60330    -0.60239    -0.59732
    -0.59321    -0.58412    -0.58175    -0.57973    -0.57700    -0.57465
    -0.57391    -0.57127    -0.56328    -0.56088    -0.56015    -0.55709
    -0.55036    -0.54409    -0.53994    -0.53441    -0.53108    -0.52600
    -0.52580    -0.52289    -0.52146    -0.51807    -0.51578    -0.51300
    -0.51218    -0.51086    -0.50831    -0.50452    -0.50419    -0.50380
    -0.50092    -0.50043    -0.49925    -0.49879    -0.49629    -0.49554
    -0.49371    -0.49345    -0.49256    -0.49039    -0.48676    -0.48465
    -0.48352    -0.48176    -0.48151    -0.47966    -0.47824    -0.47593
    -0.47444    -0.47294    -0.47193    -0.46811    -0.45895    -0.45846
    -0.45679    -0.45272    -0.45185    -0.45027    -0.44863    -0.44827
    -0.44682    -0.44450    -0.44126    -0.43745    -0.43629    -0.43421
    -0.42923    -0.42839    -0.42729    -0.42495    -0.42422    -0.42210
    -0.42087    -0.41950    -0.41817    -0.41513    -0.41315    -0.41066
    -0.40732    -0.40436    -0.40195    -0.39864    -0.39723    -0.39373
    -0.39141    -0.39133    -0.39070    -0.38886    -0.38825    -0.38312
    -0.38303    -0.38265    -0.38125    -0.37808    -0.37514    -0.37025
    -0.36558    -0.35603    -0.35572    -0.35463    -0.34792    -0.34417
    -0.34131    -0.34086    -0.33754    -0.33605    -0.33189    -0.33111
    -0.32098    -0.31454    -0.30531    -0.30413    -0.30230    -0.30120
    -0.29857    -0.29666    -0.29479    -0.29315    -0.29236    -0.29114
    -0.29065    -0.28890    -0.28720    -0.28413    -0.27838    -0.27253
    -0.25766    -0.23395    -0.05251    -0.02386    -0.01041    -0.00532
     0.00595     0.00788     0.01395     0.01594     0.01676     0.01836
 
  Peak memory usage:   1020 Mb
  
  end of program scf
   
 Time(scf)  user:     2343.7  user+sys:     2343.7  wallclock:     2477.3
  
  start of program sole
  
    SCRF                   solvation energy
  iteration          Hartrees            kcal/mol
     0               0.0000000            0.0000
     1              -0.0169374          -10.6284
     2              -0.0179865          -11.2867
     3              -0.0181457          -11.3866
     4              -0.0180904          -11.3519
  
  stopping: solvation energy converged
  
  iterations:   4    sfinal:    -11.3519 kcal/mol
  
  Peak memory usage:    812 Mb
  
  end of program sole
   
 Time(sole)  user:        0.2  user+sys:        0.2  wallclock:        0.2
  
  start of program post
  
  Writing input files for PBF
  Peak memory usage:    758 Mb
  
  end of program post
   
 Time(post)  user:        0.8  user+sys:        0.8  wallclock:        1.1

 Total cpu seconds     user:   40616.320   user+sys:   40616.320
  
 Total elapsed time:    43278 seconds

Job Toru-SiPh3-Type-II-E-1-scan-unrestrained-IRC-max-disp-optimise-2.1-SPE completed on tethys at Sat Mar 11 02:12:38 2017
