Job B3LYP-SPE-Toru-SiPh3-NTf-Type-I-E-1-chkp-scan-unrestrained.mol started on tethys at Tue Nov 22 16:35:57 2016
jobid: tethys-0-583473ec

  +--------------------------------------------------------------------+
  |  Jaguar version 8.4, release  16                                   |
  |                                                                    |
  |  Copyright Schrodinger, Inc.                                       |
  |  All Rights Reserved.                                              |
  |                                                                    |
  |  The following have contributed to Jaguar (listed alphabetically): |
  |  Mike Beachy, Art Bochevarov, Dale Braden, Yixiang Cao,            |
  |  Chris Cortis, Rich Friesner, Bill Goddard, Hod Greeley,           |
  |  Tom Hughes, Jean-Marc Langlois, Daniel Mainz, Rob Murphy,         |
  |  Dean Philipp, Tom Pollard, Murco Ringnalda.                       |
  |                                                                    |
  |  Use of this program should be acknowledged in publications as:    |
  |                                                                    |
  |  Jaguar, version 8.4, Schrodinger, Inc., New York, NY, 2013.       |
  |                                                                    |
  |  A. D. Bochevarov, E. Harder, T. F. Hughes, J. R. Greenwood,       |
  |  D. A. Braden, D. M. Philipp, D. Rinaldo, M. D. Halls,             |
  |  J. Zhang, R. A. Friesner, "Jaguar: A High-Performance Quantum     |
  |  Chemistry Software Program with Strengths in Life and Materials   |
  |  Sciences", Int. J. Quantum Chem., 2013, 113(18), 2110-2142.       |
  +--------------------------------------------------------------------+
  
  start of program pre
  
  Job name: B3LYP-SPE-Toru-SiPh3-NTf-Type-I-E-1-chkp-scan-unrestrained.mol
  Executables used: /usr/local/shared/schrodinger/current/jaguar-v84016/bin/Linux-x86_64
  Temporary files : /home/ab2144/.schrodinger/tmp/B3LYP-SPE-Toru-SiPh3-NTf-Type-I-E-1-chkp-scan-unrestrained.mol
  Maestro file (input):  B3LYP-SPE-Toru-SiPh3-NTf-Type-I-E-1-chkp-scan-unrestrained.mol.mae
  Maestro file (output): B3LYP-SPE-Toru-SiPh3-NTf-Type-I-E-1-chkp-scan-unrestrained.mol.01.mae
  
  
  basis set:             6-31g**         
  net molecular charge:    0
  multiplicity:            1
  
  keygrid settings 
    wispc.....   7.500E-01
    ldens.....   0
    denspc....   7.500E-01
  
   grid     daf set  nls  grid set  Q type
  ------    -------  ---  --------  ------
  coarse       1      1       1        1
  medium       2      2       2        1
  fine         3      2       3        0
  ultrafine    4      2       4        1
  charge       0      1      -1        1
  gradient     5      2       4        1
  density      0      1       0        0
  DFT-fine     0      1     -13        0
  DFT-med.     0      1     -13        0
  DFT-grad     0      1     -13        0
  DFT-der2     0      1       0        0
  DFT-cphf     0      1       0        0
  LMP2-enrg    4      2       4        1
  LMP2-grad    5      2       2        1
  DFT-cphf2    0      1       0        0
  PBF-dens     0      1       0        0
  plotting     0      1       0        0
  
  idftgrdm  100
  ndftgrdm   50    0    0
  idftgrdf  111
  ndftgrdf   85    0    0
  idftgrdg  111
  ndftgrdg   80    3    0
  idftgrdu  433
  ndftgrdu  105    0    0
  idftgrdd  433
  ndftgrdd  105    0    0
  idftgrdc  433
  ndftgrdc   26    0    0
  idftgrdp  433
  ndftgrdp   18    0    0
  
  number of basis functions....         1680
  
 Input geometry:
                                   angstroms
  atom               x                 y                 z
  C1           -2.1777000000      5.2396000000      0.6808000000 
  C2           -2.7417000000      3.8845000000      0.4222000000 
  C3           -2.9090000000      6.1702000000      1.3047000000 
  C4           -3.9815000000      3.5979000000      0.8758000000 
  C5           -1.9506000000      2.8231000000     -0.2742000000 
  C6           -4.7853000000      4.6377000000      1.5595000000 
  C7           -4.5271000000      2.2376000000      0.7263000000 
  C8           -4.2776000000      5.8586000000      1.7562000000 
  C9           -2.4252000000      1.5618000000     -0.3293000000 
  C10          -0.6095000000      3.1220000000     -0.8319000000 
  C11          -3.8001000000      1.2620000000      0.1609000000 
  O12          -1.6682000000      0.5795000000     -0.9136000000 
  Si13         -4.5467000000     -0.4466000000      0.0939000000 
  C14          -0.4241000000      4.0683000000     -1.7793000000 
  C15           0.5735000000      2.4744000000     -0.1959000000 
  C16           0.9425000000      4.5829000000     -2.0373000000 
  C17          -1.5410000000      4.6685000000     -2.5508000000 
  C18           1.9737000000      4.1471000000     -1.3029000000 
  C19           1.1220000000      5.6344000000     -3.0578000000 
  C20           1.7806000000      3.0754000000     -0.2973000000 
  Si21          3.2504000000      2.5582000000      0.7330000000 
  O22           0.4114000000      1.3635000000      0.6027000000 
  C23          -1.3035000000      5.6244000000     -3.4569000000 
  C24           0.0655000000      6.1192000000     -3.7199000000 
  P25          -0.3969000000      0.0719000000     -0.0204000000 
  O26          -0.8348000000     -0.7153000000      1.1832000000 
  N27           0.5013000000     -0.8356000000     -1.0270000000 
  C28          -4.4279000000     -1.2077000000      1.7949000000 
  C29          -6.3329000000     -0.2135000000     -0.4026000000 
  C30          -3.7359000000     -1.5429000000     -1.1784000000 
  C31           3.9151000000      0.9706000000      0.0326000000 
  C32           4.5577000000      3.8791000000      0.6695000000 
  C33           2.8354000000      2.4306000000      2.5445000000 
  C34          -4.9017000000     -2.4447000000      2.0256000000 
  C35          -3.8268000000     -0.4420000000      2.9158000000 
  C36          -7.3418000000     -0.7577000000      0.3008000000 
  C37          -6.6501000000      0.6453000000     -1.5715000000 
  C38          -3.7909000000     -1.2231000000     -2.4824000000 
  C39          -3.0878000000     -2.8159000000     -0.7748000000 
  C40           3.9264000000     -0.1597000000      0.7539000000 
  C41           4.4732000000      0.9627000000     -1.3409000000 
  C42           4.2445000000      5.1381000000      1.0199000000 
  C43           5.9542000000      3.5557000000      0.2870000000 
  C44           3.7783000000      2.0226000000      3.4114000000 
  C45           1.5161000000      2.8716000000      3.0630000000 
  C46          -4.8392000000     -3.0284000000      3.3812000000 
  C47          -4.3189000000     -2.3227000000      4.3912000000 
  C48          -3.7884000000     -0.9667000000      4.1467000000 
  C49          -8.7436000000     -0.5443000000     -0.1165000000 
  C50          -9.0187000000      0.2099000000     -1.1862000000 
  C51          -7.9208000000      0.8408000000     -1.9438000000 
  C52          -3.2652000000     -2.1532000000     -3.5026000000 
  C53          -2.7188000000     -3.3160000000     -3.1321000000 
  C54          -2.6168000000     -3.6582000000     -1.7011000000 
  C55           4.4971000000     -1.4003000000      0.1902000000 
  C56           5.0274000000     -1.3939000000     -1.0377000000 
  C57           5.0145000000     -0.1548000000     -1.8415000000 
  C58           5.2726000000      6.1986000000      0.9851000000 
  C59           6.5260000000      5.9052000000      0.6203000000 
  C60           6.8843000000      4.5185000000      0.2604000000 
  C61           3.4856000000      1.9595000000      4.8584000000 
  C62           2.2830000000      2.3268000000      5.3152000000 
  C63           1.2534000000      2.8118000000      4.3744000000 
  C64           3.3923000000     -3.4887000000      4.3562000000 
  C65           2.7973000000     -4.0784000000      3.2451000000 
  C66           1.9668000000     -3.3290000000      2.3924000000 
  C67           1.7147000000     -1.9835000000      2.6991000000 
  C68           2.2879000000     -1.4079000000      3.8327000000 
  C69           3.1344000000     -2.1485000000      4.6558000000 
  C70           1.3832000000     -4.0413000000      1.2347000000 
  N71           1.3435000000     -3.5052000000     -0.0285000000 
  S72           1.2724000000     -4.5891000000     -1.3638000000 
  O73           0.9307000000     -5.8948000000     -0.7890000000 
  O74           0.4514000000     -3.9742000000     -2.3960000000 
  C75           2.9876000000     -4.6450000000     -1.9420000000 
  C76           3.2972000000     -4.1353000000     -3.1980000000 
  C77           4.6239000000     -4.2703000000     -3.6103000000 
  C78           5.5386000000     -4.8850000000     -2.7578000000 
  C79           5.1022000000     -5.3334000000     -1.5078000000 
  N80           3.8352000000     -5.2199000000     -1.0972000000 
  N81          -1.0286000000     -3.1588000000      2.2128000000 
  C82          -1.0927000000     -3.1796000000      3.5429000000 
  C83          -0.8173000000     -4.4840000000      4.0159000000 
  C84          -0.5402000000     -5.2535000000      2.9029000000 
  C85          -0.5674000000     -4.4007000000      1.7531000000 
  H86          -1.1666000000      5.4864000000      0.3878000000 
  H87          -2.4931000000      7.1520000000      1.4914000000 
  H88          -5.7866000000      4.4119000000      1.9050000000 
  H89          -5.5188000000      2.0314000000      1.1119000000 
  H90          -4.8648000000      6.6172000000      2.2574000000 
  H91          -2.5589000000      4.3286000000     -2.4070000000 
  H92           2.9630000000      4.5510000000     -1.4765000000 
  H93           2.1096000000      6.0256000000     -3.2718000000 
  H94          -2.1294000000      6.0450000000     -4.0162000000 
  H95           0.2108000000      6.8923000000     -4.4634000000 
  H96          -5.3436000000     -3.0266000000      1.2262000000 
  H97          -3.4162000000      0.5449000000      2.7537000000 
  H98          -7.1597000000     -1.3552000000      1.1798000000 
  H99          -5.8600000000      1.1475000000     -2.1127000000 
  H100         -4.2361000000     -0.2968000000     -2.8120000000 
  H101         -2.9912000000     -3.0806000000      0.2660000000 
  H102          3.5384000000     -0.1752000000      1.7574000000 
  H103          4.4572000000      1.8652000000     -1.9392000000 
  H104          3.2365000000      5.3946000000      1.3225000000 
  H105          6.2399000000      2.5417000000      0.0453000000 
  H106          4.7625000000      1.7331000000      3.0641000000 
  H107          0.7647000000      3.2707000000      2.3969000000 
  H108         -5.2216000000     -4.0257000000      3.5556000000 
  H109         -4.2740000000     -2.7477000000      5.3855000000 
  H110         -3.3524000000     -0.4053000000      4.9628000000 
  H111         -9.5475000000     -1.0003000000      0.4469000000 
  H112        -10.0449000000      0.3678000000     -1.4917000000 
  H113         -8.1472000000      1.4743000000     -2.7917000000 
  H114         -3.3288000000     -1.8929000000     -4.5512000000 
  H115         -2.3354000000     -3.9998000000     -3.8783000000 
  H116         -2.1560000000     -4.5910000000     -1.4037000000 
  H117          4.4970000000     -2.3093000000      0.7780000000 
  H118          5.4602000000     -2.2956000000     -1.4470000000 
  H119          5.4290000000     -0.1576000000     -2.8411000000 
  H120          5.0084000000      7.2129000000      1.2549000000 
  H121          7.2806000000      6.6806000000      0.5949000000 
  H122          7.9037000000      4.2813000000     -0.0152000000 
  H123          4.2444000000      1.6093000000      5.5459000000 
  H124          2.0653000000      2.2780000000      6.3742000000 
  H125          0.2919000000      3.1364000000      4.7508000000 
  H126          4.0509000000     -4.0749000000      4.9898000000 
  H127          2.9913000000     -5.1235000000      3.0199000000 
  H128          1.0615000000     -1.3844000000      2.0750000000 
  H129          2.0666000000     -0.3715000000      4.0600000000 
  H130          3.5872000000     -1.6873000000      5.5285000000 
  H131          1.6490000000     -5.0920000000      1.1951000000 
  H132          2.5438000000     -3.6368000000     -3.7928000000 
  H133          4.9345000000     -3.8911000000     -4.5784000000 
  H134          6.5781000000     -5.0059000000     -3.0442000000 
  H135          5.7940000000     -5.8001000000     -0.8109000000 
  H136         -1.0645000000     -2.2703000000      1.6605000000 
  H137         -1.2922000000     -2.2774000000      4.1027000000 
  H138         -0.8148000000     -4.7883000000      5.0524000000 
  H139         -0.2901000000     -6.3055000000      2.8761000000 
  H140         -0.8447000000     -4.7348000000      0.7631000000 
  S141          1.2586000000     -0.3841000000     -2.3729000000 
  O142          2.3079000000     -1.3730000000     -2.6538000000 
  C143          0.0722000000     -0.5902000000     -3.8081000000 
  O144          1.5788000000      1.0493000000     -2.4503000000 
  F145         -0.2250000000     -1.8706000000     -4.0236000000 
  F146         -1.0549000000      0.1003000000     -3.6096000000 
  F147          0.6791000000     -0.1076000000     -4.9033000000 
  H148          1.1353000000     -2.5118000000     -0.2688000000 
   
  principal moments of inertia:
        amu*angstrom^2:    21525.34097    24258.42987    30598.09387
                g*cm^2: 3.57436652E-36 4.02820655E-36 5.08093239E-36
   
  rotational constants:
               cm^(-1):      0.00078315      0.00069492      0.00055094
                   GHz:      0.02347833      0.02083313      0.01651668
   
  Molecular weight:    1308.28 amu
   
  Stoichiometry: Si2C73PN4H56S2O7F3
  Molecular Point Group: C1      
  Point Group used: C1
  
  nuclear repulsion energy.......   20928.586967531 hartrees
 
 Non-default options chosen:
   SCF calculation type: DFT(b3lyp)                  
   DFT=Becke_3_Parameter/HF+Slater+Becke88+VWN+LYP (B3LYP)
   Solvation energy will be computed using PBF
     -solute cavity energy will not be included
     -surface area terms will not be included
   Highest accuracy cutoffs used in SCF
   Solvent: other                                                           
   Internal dielectric constant:    1.000
   Continuum dielectric constant:   2.380
   Solvent probe molecule radius:   2.760
  
 Temporary integer options set:
     73=  2
  
  atom       vdw   vdw2    cov     mass  grid  daf  charge   basis
  C1        1.949  1.900  0.770   12.000    Y    Y      Y    6-31g**
  C2        1.949  1.900  0.770   12.000    Y    Y      Y    6-31g**
  C3        1.949  1.900  0.770   12.000    Y    Y      Y    6-31g**
  C4        1.949  1.900  0.770   12.000    Y    Y      Y    6-31g**
  C5        1.949  1.900  0.770   12.000    Y    Y      Y    6-31g**
  C6        1.949  1.900  0.770   12.000    Y    Y      Y    6-31g**
  C7        1.949  1.900  0.770   12.000    Y    Y      Y    6-31g**
  C8        1.949  1.900  0.770   12.000    Y    Y      Y    6-31g**
  C9        1.949  1.900  0.770   12.000    Y    Y      Y    6-31g**
  C10       1.949  1.900  0.770   12.000    Y    Y      Y    6-31g**
  C11       1.949  1.900  0.770   12.000    Y    Y      Y    6-31g**
  O12       1.702  1.600  0.730   15.995    Y    Y      Y    6-31g**
  Si13      2.217  2.147  1.110   27.977    Y    Y      Y    6-31g**
  C14       1.949  1.900  0.770   12.000    Y    Y      Y    6-31g**
  C15       1.949  1.900  0.770   12.000    Y    Y      Y    6-31g**
  C16       1.949  1.900  0.770   12.000    Y    Y      Y    6-31g**
  C17       1.949  1.900  0.770   12.000    Y    Y      Y    6-31g**
  C18       1.949  1.900  0.770   12.000    Y    Y      Y    6-31g**
  C19       1.949  1.900  0.770   12.000    Y    Y      Y    6-31g**
  C20       1.949  1.900  0.770   12.000    Y    Y      Y    6-31g**
  Si21      2.217  2.147  1.110   27.977    Y    Y      Y    6-31g**
  O22       1.702  1.600  0.730   15.995    Y    Y      Y    6-31g**
  C23       1.949  1.900  0.770   12.000    Y    Y      Y    6-31g**
  C24       1.949  1.900  0.770   12.000    Y    Y      Y    6-31g**
  P25       2.147  2.074  1.060   30.974    Y    Y      Y    6-31g**
  O26       1.702  1.600  0.730   15.995    Y    Y      Y    6-31g**
  N27       1.831  1.600  0.750   14.003    Y    Y      Y    6-31g**
  C28       1.949  1.900  0.770   12.000    Y    Y      Y    6-31g**
  C29       1.949  1.900  0.770   12.000    Y    Y      Y    6-31g**
  C30       1.949  1.900  0.770   12.000    Y    Y      Y    6-31g**
  C31       1.949  1.900  0.770   12.000    Y    Y      Y    6-31g**
  C32       1.949  1.900  0.770   12.000    Y    Y      Y    6-31g**
  C33       1.949  1.900  0.770   12.000    Y    Y      Y    6-31g**
  C34       1.949  1.900  0.770   12.000    Y    Y      Y    6-31g**
  C35       1.949  1.900  0.770   12.000    Y    Y      Y    6-31g**
  C36       1.949  1.900  0.770   12.000    Y    Y      Y    6-31g**
  C37       1.949  1.900  0.770   12.000    Y    Y      Y    6-31g**
  C38       1.949  1.900  0.770   12.000    Y    Y      Y    6-31g**
  C39       1.949  1.900  0.770   12.000    Y    Y      Y    6-31g**
  C40       1.949  1.900  0.770   12.000    Y    Y      Y    6-31g**
  C41       1.949  1.900  0.770   12.000    Y    Y      Y    6-31g**
  C42       1.949  1.900  0.770   12.000    Y    Y      Y    6-31g**
  C43       1.949  1.900  0.770   12.000    Y    Y      Y    6-31g**
  C44       1.949  1.900  0.770   12.000    Y    Y      Y    6-31g**
  C45       1.949  1.900  0.770   12.000    Y    Y      Y    6-31g**
  C46       1.949  1.900  0.770   12.000    Y    Y      Y    6-31g**
  C47       1.949  1.900  0.770   12.000    Y    Y      Y    6-31g**
  C48       1.949  1.900  0.770   12.000    Y    Y      Y    6-31g**
  C49       1.949  1.900  0.770   12.000    Y    Y      Y    6-31g**
  C50       1.949  1.900  0.770   12.000    Y    Y      Y    6-31g**
  C51       1.949  1.900  0.770   12.000    Y    Y      Y    6-31g**
  C52       1.949  1.900  0.770   12.000    Y    Y      Y    6-31g**
  C53       1.949  1.900  0.770   12.000    Y    Y      Y    6-31g**
  C54       1.949  1.900  0.770   12.000    Y    Y      Y    6-31g**
  C55       1.949  1.900  0.770   12.000    Y    Y      Y    6-31g**
  C56       1.949  1.900  0.770   12.000    Y    Y      Y    6-31g**
  C57       1.949  1.900  0.770   12.000    Y    Y      Y    6-31g**
  C58       1.949  1.900  0.770   12.000    Y    Y      Y    6-31g**
  C59       1.949  1.900  0.770   12.000    Y    Y      Y    6-31g**
  C60       1.949  1.900  0.770   12.000    Y    Y      Y    6-31g**
  C61       1.949  1.900  0.770   12.000    Y    Y      Y    6-31g**
  C62       1.949  1.900  0.770   12.000    Y    Y      Y    6-31g**
  C63       1.949  1.900  0.770   12.000    Y    Y      Y    6-31g**
  C64       1.949  1.900  0.770   12.000    Y    Y      Y    6-31g**
  C65       1.949  1.900  0.770   12.000    Y    Y      Y    6-31g**
  C66       1.949  1.900  0.770   12.000    Y    Y      Y    6-31g**
  C67       1.949  1.900  0.770   12.000    Y    Y      Y    6-31g**
  C68       1.949  1.900  0.770   12.000    Y    Y      Y    6-31g**
  C69       1.949  1.900  0.770   12.000    Y    Y      Y    6-31g**
  C70       1.949  1.900  0.770   12.000    Y    Y      Y    6-31g**
  N71       1.831  1.600  0.750   14.003    Y    Y      Y    6-31g**
  S72       2.070  1.900  1.020   31.972    Y    Y      Y    6-31g**
  O73       1.702  1.600  0.730   15.995    Y    Y      Y    6-31g**
  O74       1.702  1.600  0.730   15.995    Y    Y      Y    6-31g**
  C75       1.949  1.900  0.770   12.000    Y    Y      Y    6-31g**
  C76       1.949  1.900  0.770   12.000    Y    Y      Y    6-31g**
  C77       1.949  1.900  0.770   12.000    Y    Y      Y    6-31g**
  C78       1.949  1.900  0.770   12.000    Y    Y      Y    6-31g**
  C79       1.949  1.900  0.770   12.000    Y    Y      Y    6-31g**
  N80       1.831  1.600  0.750   14.003    Y    Y      Y    6-31g**
  N81       1.831  1.600  0.750   14.003    Y    Y      Y    6-31g**
  C82       1.949  1.900  0.770   12.000    Y    Y      Y    6-31g**
  C83       1.949  1.900  0.770   12.000    Y    Y      Y    6-31g**
  C84       1.949  1.900  0.770   12.000    Y    Y      Y    6-31g**
  C85       1.949  1.900  0.770   12.000    Y    Y      Y    6-31g**
  H86       1.597  1.150  0.320    1.008    Y    Y      Y    6-31g**
  H87       1.597  1.150  0.320    1.008    Y    Y      Y    6-31g**
  H88       1.597  1.150  0.320    1.008    Y    Y      Y    6-31g**
  H89       1.597  1.150  0.320    1.008    Y    Y      Y    6-31g**
  H90       1.597  1.150  0.320    1.008    Y    Y      Y    6-31g**
  H91       1.597  1.150  0.320    1.008    Y    Y      Y    6-31g**
  H92       1.597  1.150  0.320    1.008    Y    Y      Y    6-31g**
  H93       1.597  1.150  0.320    1.008    Y    Y      Y    6-31g**
  H94       1.597  1.150  0.320    1.008    Y    Y      Y    6-31g**
  H95       1.597  1.150  0.320    1.008    Y    Y      Y    6-31g**
  H96       1.597  1.150  0.320    1.008    Y    Y      Y    6-31g**
  H97       1.597  1.150  0.320    1.008    Y    Y      Y    6-31g**
  H98       1.597  1.150  0.320    1.008    Y    Y      Y    6-31g**
  H99       1.597  1.150  0.320    1.008    Y    Y      Y    6-31g**
  H100      1.597  1.150  0.320    1.008    Y    Y      Y    6-31g**
  H101      1.597  1.150  0.320    1.008    Y    Y      Y    6-31g**
  H102      1.597  1.150  0.320    1.008    Y    Y      Y    6-31g**
  H103      1.597  1.150  0.320    1.008    Y    Y      Y    6-31g**
  H104      1.597  1.150  0.320    1.008    Y    Y      Y    6-31g**
  H105      1.597  1.150  0.320    1.008    Y    Y      Y    6-31g**
  H106      1.597  1.150  0.320    1.008    Y    Y      Y    6-31g**
  H107      1.597  1.150  0.320    1.008    Y    Y      Y    6-31g**
  H108      1.597  1.150  0.320    1.008    Y    Y      Y    6-31g**
  H109      1.597  1.150  0.320    1.008    Y    Y      Y    6-31g**
  H110      1.597  1.150  0.320    1.008    Y    Y      Y    6-31g**
  H111      1.597  1.150  0.320    1.008    Y    Y      Y    6-31g**
  H112      1.597  1.150  0.320    1.008    Y    Y      Y    6-31g**
  H113      1.597  1.150  0.320    1.008    Y    Y      Y    6-31g**
  H114      1.597  1.150  0.320    1.008    Y    Y      Y    6-31g**
  H115      1.597  1.150  0.320    1.008    Y    Y      Y    6-31g**
  H116      1.597  1.150  0.320    1.008    Y    Y      Y    6-31g**
  H117      1.597  1.150  0.320    1.008    Y    Y      Y    6-31g**
  H118      1.597  1.150  0.320    1.008    Y    Y      Y    6-31g**
  H119      1.597  1.150  0.320    1.008    Y    Y      Y    6-31g**
  H120      1.597  1.150  0.320    1.008    Y    Y      Y    6-31g**
  H121      1.597  1.150  0.320    1.008    Y    Y      Y    6-31g**
  H122      1.597  1.150  0.320    1.008    Y    Y      Y    6-31g**
  H123      1.597  1.150  0.320    1.008    Y    Y      Y    6-31g**
  H124      1.597  1.150  0.320    1.008    Y    Y      Y    6-31g**
  H125      1.597  1.150  0.320    1.008    Y    Y      Y    6-31g**
  H126      1.597  1.150  0.320    1.008    Y    Y      Y    6-31g**
  H127      1.597  1.150  0.320    1.008    Y    Y      Y    6-31g**
  H128      1.597  1.150  0.320    1.008    Y    Y      Y    6-31g**
  H129      1.597  1.150  0.320    1.008    Y    Y      Y    6-31g**
  H130      1.597  1.150  0.320    1.008    Y    Y      Y    6-31g**
  H131      1.597  1.150  0.320    1.008    Y    Y      Y    6-31g**
  H132      1.597  1.150  0.320    1.008    Y    Y      Y    6-31g**
  H133      1.597  1.150  0.320    1.008    Y    Y      Y    6-31g**
  H134      1.597  1.150  0.320    1.008    Y    Y      Y    6-31g**
  H135      1.597  1.150  0.320    1.008    Y    Y      Y    6-31g**
  H136      1.597  1.150  0.320    1.008    Y    Y      Y    6-31g**
  H137      1.597  1.150  0.320    1.008    Y    Y      Y    6-31g**
  H138      1.597  1.150  0.320    1.008    Y    Y      Y    6-31g**
  H139      1.597  1.150  0.320    1.008    Y    Y      Y    6-31g**
  H140      1.597  1.150  0.320    1.008    Y    Y      Y    6-31g**
  S141      2.070  1.900  1.020   31.972    Y    Y      Y    6-31g**
  O142      1.702  1.600  0.730   15.995    Y    Y      Y    6-31g**
  C143      1.949  1.900  0.770   12.000    Y    Y      Y    6-31g**
  O144      1.702  1.600  0.730   15.995    Y    Y      Y    6-31g**
  F145      1.736  1.682  0.720   18.998    Y    Y      Y    6-31g**
  F146      1.736  1.682  0.720   18.998    Y    Y      Y    6-31g**
  F147      1.736  1.682  0.720   18.998    Y    Y      Y    6-31g**
  H148      1.597  1.150  0.320    1.008    Y    Y      Y    6-31g**
  
  Peak memory usage:    528 Mb
  
  end of program pre
   
 Time(pre)  user:        0.0  user+sys:        0.0  wallclock:        0.9
  
  start of program onee
  
  smallest eigenvalue of S:    2.333E-04
  number of canonical orbitals.....         1674
  Peak memory usage:    707 Mb
  
  end of program onee
   
 Time(onee)  user:       31.0  user+sys:       32.0  wallclock:       57.0
  
  start of program hfig
  
  initial wavefunction generated automatically from atomic wavefunctions
 
  Irreducible     Total no   No of occupied orbitals 
  representation  orbitals   Shell_1  Shell_2    ...
  No Symm         1674        340
  ------------------------
  Orbital occupation/shell    1.000
 
  Peak memory usage:    646 Mb
  
  end of program hfig
   
 Time(hfig)  user:       45.0  user+sys:       45.0  wallclock:       84.3
  
  start of program probe
  
  Peak memory usage:    640 Mb
  
  end of program probe
   
 Time(probe)  user:       37.0  user+sys:       37.0  wallclock:       70.2
  
  start of program grid
  
  
   grid     grid set  grid #  grid sym
  ------    --------  ------  --------
  coarse        0        0        1
  medium        2        1        1
  fine          0        0        1
  ultrafine     4        2        1
  charge       -1        3        1
  gradient      4        2        1
  density       0        0        1
  DFT-fine    -13        4        1
  DFT-med.    -13        4        1
  DFT-grad    -13        4        1
  DFT-der2      0        0        1
  DFT-cphf      0        0        1
  LMP2-enrg     4        2        1
  LMP2-grad     2        1        1
  DFT-cphf2     0        0        1
  PBF-dens      0        0        1
  plotting      0        0        1
  
   
  number of gridpoints: 
     atom        C1       C2       C3       C4       C5       C6       C7
  grid # 1       96      101       94      101      100       96       92
  grid # 2      338      359      336      366      356      335      333
  grid # 3       27       24       39       41       13       46       15
  grid # 4    14816    14816    14816    14816    14816    14816    14816
   
  number of gridpoints: 
     atom        C8       C9      C10      C11      O12     Si13      C14
  grid # 1       94       97      100      100      111      474      101
  grid # 2      335      360      358      357      430      474      358
  grid # 3       47       21       12       10       30        7       24
  grid # 4    14816    14816    14816    14816    23902    22912    14816
   
  number of gridpoints: 
     atom       C15      C16      C17      C18      C19      C20     Si21
  grid # 1       97      101       96       94       97      101      474
  grid # 2      352      365      336      331      338      359      474
  grid # 3        6       33       28       17       41        9        7
  grid # 4    14816    14816    14816    14816    14816    14816    22912
   
  number of gridpoints: 
     atom       O22      C23      C24      P25      O26      N27      C28
  grid # 1      113       94       94      447      117      111      101
  grid # 2      438      339      338      447      442      402      357
  grid # 3       44       40       45        6       50       23       12
  grid # 4    23902    14816    14816    23204    23902    15000    14816
   
  number of gridpoints: 
     atom       C29      C30      C31      C32      C33      C34      C35
  grid # 1      101      101      101      100      101       92       97
  grid # 2      360      360      356      359      360      333      337
  grid # 3       20       18        8       11       12       10       24
  grid # 4    14816    14816    14816    14816    14816    14816    14816
   
  number of gridpoints: 
     atom       C36      C37      C38      C39      C40      C41      C42
  grid # 1       93       95       93       96       92       93       92
  grid # 2      338      335      334      335      334      328      335
  grid # 3       35       29       25       23       17        7       22
  grid # 4    14816    14816    14816    14816    14816    14816    14816
   
  number of gridpoints: 
     atom       C43      C44      C45      C46      C47      C48      C49
  grid # 1       96       92       96       93       93       94       94
  grid # 2      340      334      336      333      331      331      336
  grid # 3       30       19       24       25       29       30       45
  grid # 4    14816    14816    14816    14816    14816    14816    14816
   
  number of gridpoints: 
     atom       C50      C51      C52      C53      C54      C55      C56
  grid # 1       94       95       93       94       93       94       93
  grid # 2      336      336      332      333      332      334      331
  grid # 3       47       43       28       30       33       27       24
  grid # 4    14816    14816    14816    14816    14816    14816    14816
   
  number of gridpoints: 
     atom       C57      C58      C59      C60      C61      C62      C63
  grid # 1       93       93       94       94       93       93       94
  grid # 2      331      335      336      336      331      332      334
  grid # 3       18       39       45       44       27       27       30
  grid # 4    14816    14816    14816    14816    14816    14816    14816
   
  number of gridpoints: 
     atom       C64      C65      C66      C67      C68      C69      C70
  grid # 1       95       95       98       95       95       95       91
  grid # 2      331      333      355      326      331      331      321
  grid # 3       30       16        8        9       16       33        6
  grid # 4    14816    14816    14816    14816    14816    14816    14816
   
  number of gridpoints: 
     atom       N71      S72      O73      O74      C75      C76      C77
  grid # 1       98      441      120      119       98       96       96
  grid # 2      355      441      487      469      359      328      329
  grid # 3       10       12      224       77       29       33       29
  grid # 4    15000    32664    23902    23902    14816    14816    14816
   
  number of gridpoints: 
     atom       C78      C79      N80      N81      C82      C83      C84
  grid # 1       96       96      112       96       94       93       94
  grid # 2      328      337      417      347      329      330      331
  grid # 3       30       29       87       15       14       21       21
  grid # 4    14816    14816    15000    15000    14816    14816    14816
   
  number of gridpoints: 
     atom       C85      H86      H87      H88      H89      H90      H91
  grid # 1       92      111      118      118      112      118      113
  grid # 2      324      431      451      446      428      453      435
  grid # 3        7      212      415      360      203      425      253
  grid # 4    14816    16416    16416    16416    16416    16416    16416
   
  number of gridpoints: 
     atom       H92      H93      H94      H95      H96      H97      H98
  grid # 1      110      117      118      118      112      111      111
  grid # 2      425      443      449      451      426      427      430
  grid # 3      172      362      411      418      216      196      224
  grid # 4    16416    16416    16416    16416    16416    16416    16416
   
  number of gridpoints: 
     atom       H99     H100     H101     H102     H103     H104     H105
  grid # 1      110      110      107      106      111      112      111
  grid # 2      425      426      413      416      430      438      433
  grid # 3      200      184       93       86      214      258      222
  grid # 4    16416    16416    16416    16416    16416    16416    16416
   
  number of gridpoints: 
     atom      H106     H107     H108     H109     H110     H111     H112
  grid # 1      113      111      117      117      117      118      118
  grid # 2      436      421      452      450      448      452      453
  grid # 3      244      174      391      372      353      417      425
  grid # 4    16416    16416    16416    16416    16416    16416    16416
   
  number of gridpoints: 
     atom      H113     H114     H115     H116     H117     H118     H119
  grid # 1      118      117      115      110      114      112      117
  grid # 2      453      445      444      430      436      431      450
  grid # 3      422      354      343      223      243      215      364
  grid # 4    16416    16416    16416    16416    16416    16416    16416
   
  number of gridpoints: 
     atom      H120     H121     H122     H123     H124     H125     H126
  grid # 1      118      118      118      117      117      118      118
  grid # 2      452      453      453      447      452      450      449
  grid # 3      414      425      423      353      405      376      413
  grid # 4    16416    16416    16416    16416    16416    16416    16416
   
  number of gridpoints: 
     atom      H127     H128     H129     H130     H131     H132     H133
  grid # 1      111      104      109      117      104      110      117
  grid # 2      439      407      424      444      412      431      453
  grid # 3      287       69      155      347      108      218      404
  grid # 4    16416    16416    16416    16416    16416    16416    16416
   
  number of gridpoints: 
     atom      H134     H135     H136     H137     H138     H139     H140
  grid # 1      117      117      101      111      117      116      107
  grid # 2      451      453      396      433      458      455      418
  grid # 3      407      421       47      208      421      392      114
  grid # 4    16416    16416    16416    16416    16416    16416    16416
   
  number of gridpoints: 
     atom      S141     O142     C143     O144     F145     F146     F147
  grid # 1      434      117       89      118      513      519      537
  grid # 2      434      472      317      478      513      519      537
  grid # 3       10       68        7       95       98      124      304
  grid # 4    32664    23902    14816    23902    23920    23920    23920
   
  number of gridpoints: 
     atom      H148    total
  grid # 1      103    18394
  grid # 2      404    57847
  grid # 3       67    19242
  grid # 4    16416  2434294
   
  Peak memory usage:    671 Mb
  
  end of program grid
   
 Time(grid)  user:      399.0  user+sys:      400.0  wallclock:      741.7
  
  start of program rwr
  
  Peak memory usage:    661 Mb
  
  end of program rwr
   
 Time(rwr)  user:       71.0  user+sys:       77.0  wallclock:      130.5
  
  start of program scf
  
 number of electrons..........        680
 number of alpha electrons....        340
 number of beta electrons.....        340
 number of orbitals, total....       1674
 number of doubly-occ'd orbs..        340
 number of open shell orbs....          0
 number of occupied orbitals..        340
 number of virtual orbitals...       1334
 number of hamiltonians.......          1
 number of shells.............          1
 SCF type: DFT=Becke_3_Parameter/HF+Slater+Becke88+VWN+LYP (B3LYP)
  
       i  u  d  i  g                   
       t  p  i  c  r                                 RMS    maximum
       e  d  i  u  i                       energy  density   DIIS  
       r  t  s  t  d       total energy    change  change    error 
  
etot    1  N  N  1  U   -5563.79230056847           5.7E-03  1.1E-01
etot    2  N  Y  1  U   -5461.52977385736 -1.0E+02  1.6E-02  2.5E-01
etot    3  N  Y  1  U   -5287.60499459706 -1.7E+02  1.5E-02  3.0E-01
etot    4  N  Y  1  U   -5565.72262780934  2.8E+02  6.7E-03  1.2E-01
etot    5  N  Y  1  U   -5459.18104080705 -1.1E+02  6.0E-03  2.5E-01
etot    6  N  Y  1  U   -5574.69245797829  1.2E+02  1.9E-03  6.4E-02
etot    7  N  Y  1  U   -5566.89280509715 -7.8E+00  1.8E-03  8.1E-02
etot    8  N  Y  1  U   -5575.09504303514  8.2E+00  9.3E-04  4.0E-02
etot    9  N  Y  1  U   -5577.08595684750  2.0E+00  3.2E-04  1.3E-02
etot   10  N  Y  1  U   -5577.17612234854  9.0E-02  1.6E-04  7.1E-03
etot   11  N  Y  1  U   -5577.19506875173  1.9E-02  7.1E-05  4.2E-03
etot   12  N  Y  1  U   -5577.20500403944  9.9E-03  2.2E-05  1.0E-03
etot   13  N  Y  1  U   -5577.20556760879  5.6E-04  1.3E-05  7.1E-04
etot   14  N  Y  1  U   -5577.20574082984  1.7E-04  7.5E-06  3.7E-04
etot   15  N  Y  1  U   -5577.20579653583  5.6E-05  3.3E-06  1.2E-04
etot   16  N  N  1  U   -5577.20580824813  1.2E-05  0.0E+00  0.0E+00
  
  
 Energy components, in hartrees:
   (A)  Nuclear repulsion............   20928.58696753111
   (E)  Total one-electron terms.....  -49391.33955704059
   (F)    Electron-nuclear...........  -54926.53655464253
   (H)    Kinetic....................    5535.19699760195
   (I)  Total two-electron terms.....   22885.54678126135
   (J)    Coulomb....................   23538.78283517746
   (K)    Exchange+Correlation.......    -653.23605391611
   (L)  Electronic energy............  -26505.79277577924  (E+I)
   (M)  -V/T.........................       2.00758939757  (-(A+F+I)/H)
   (N)  Total energy.................   -5577.20580824813  (A+L)
  
 SCFE: SCF energy: DFT(b3lyp)     -5577.20580824813 hartrees   iterations:  16
  
 
 HOMO energy:    -0.19662
 LUMO energy:    -0.09510
 
  Orbital energies (hartrees): 
   -89.12190   -89.08697   -77.23857   -66.11252   -66.10557   -24.71504
   -24.71440   -24.71228   -19.19544   -19.19018   -19.15619   -19.15545
   -19.11258   -19.11243   -19.11079   -14.39725   -14.38902   -14.36203
   -14.30967   -10.41893   -10.29098   -10.26600   -10.25808   -10.25241
   -10.25218   -10.24745   -10.24584   -10.22804   -10.22248   -10.22198
   -10.22172   -10.22011   -10.21294   -10.21079   -10.20570   -10.20552
   -10.20512   -10.20140   -10.19994   -10.19839   -10.19790   -10.19572
   -10.19538   -10.19462   -10.19415   -10.19377   -10.19318   -10.19164
   -10.19017   -10.18919   -10.18883   -10.18860   -10.18832   -10.18807
   -10.18670   -10.18638   -10.18593   -10.18588   -10.18479   -10.18444
   -10.18425   -10.18399   -10.18354   -10.18258   -10.18242   -10.18209
   -10.18197   -10.18195   -10.18099   -10.18081   -10.18067   -10.17996
   -10.17955   -10.17776   -10.17687   -10.17568   -10.17428   -10.17169
   -10.17090   -10.17083   -10.17046   -10.16984   -10.16971   -10.16917
   -10.16849   -10.16796   -10.16787   -10.16771   -10.16700   -10.16297
   -10.15972   -10.15520    -8.14797    -8.11149    -6.68310    -6.11322
    -6.11201    -6.11056    -6.07612    -6.07554    -6.07520    -5.25900
    -5.25239    -4.84778    -4.84693    -4.84452    -3.61809    -3.61761
    -3.61729    -3.61133    -3.61118    -3.61059    -1.29406    -1.20733
    -1.20423    -1.12436    -1.09970    -1.07900    -1.05978    -1.01559
    -1.00723    -0.97371    -0.97156    -0.96915    -0.95266    -0.87423
    -0.87004    -0.86439    -0.85530    -0.84618    -0.83900    -0.83727
    -0.83314    -0.82595    -0.82502    -0.82207    -0.81631    -0.80749
    -0.80279    -0.79944    -0.78430    -0.78385    -0.75914    -0.75368
    -0.75161    -0.74864    -0.74518    -0.74412    -0.73850    -0.73823
    -0.73539    -0.73337    -0.73323    -0.73056    -0.72852    -0.72758
    -0.72541    -0.72116    -0.72107    -0.71879    -0.71137    -0.70788
    -0.70111    -0.67545    -0.66106    -0.65490    -0.62944    -0.62830
    -0.61764    -0.61553    -0.61457    -0.61329    -0.60995    -0.60662
    -0.60220    -0.60006    -0.59754    -0.59428    -0.59260    -0.59059
    -0.58799    -0.58749    -0.58489    -0.58308    -0.57926    -0.57793
    -0.57644    -0.57438    -0.57369    -0.56946    -0.56841    -0.56806
    -0.56421    -0.56291    -0.55165    -0.54444    -0.54159    -0.53040
    -0.52716    -0.52350    -0.51771    -0.50793    -0.50777    -0.50341
    -0.50200    -0.49967    -0.49810    -0.49548    -0.49366    -0.49265
    -0.48453    -0.48278    -0.47825    -0.47257    -0.47093    -0.46848
    -0.46676    -0.46414    -0.46267    -0.45820    -0.45770    -0.45366
    -0.45108    -0.44962    -0.44817    -0.44573    -0.44401    -0.44291
    -0.44198    -0.44133    -0.44076    -0.43851    -0.43619    -0.43482
    -0.43319    -0.43301    -0.43134    -0.43082    -0.42820    -0.42633
    -0.42624    -0.42550    -0.42336    -0.42246    -0.42199    -0.42099
    -0.42056    -0.41994    -0.41932    -0.41776    -0.41673    -0.41621
    -0.41512    -0.41409    -0.41275    -0.41012    -0.40755    -0.40567
    -0.40344    -0.40179    -0.39996    -0.39824    -0.39247    -0.39163
    -0.38732    -0.38469    -0.38278    -0.38235    -0.38129    -0.37701
    -0.37674    -0.37133    -0.36831    -0.36631    -0.36495    -0.36178
    -0.35920    -0.35776    -0.35602    -0.35238    -0.35137    -0.34929
    -0.34859    -0.34518    -0.34274    -0.34099    -0.34010    -0.33896
    -0.33700    -0.33525    -0.33403    -0.33256    -0.33037    -0.32917
    -0.32804    -0.32331    -0.32204    -0.32017    -0.31851    -0.31800
    -0.31694    -0.31274    -0.30752    -0.30587    -0.30264    -0.29742
    -0.29443    -0.29118    -0.28942    -0.28915    -0.28513    -0.28485
    -0.28406    -0.28284    -0.28248    -0.27919    -0.27432    -0.26905
    -0.26860    -0.26577    -0.26337    -0.26185    -0.25492    -0.25290
    -0.25173    -0.25005    -0.24596    -0.24562    -0.24478    -0.24420
    -0.24121    -0.23661    -0.23220    -0.23067    -0.22976    -0.22511
    -0.22465    -0.22233    -0.21536    -0.19662    -0.09510    -0.05439
    -0.04042    -0.03611    -0.02917    -0.01994    -0.01638    -0.01531
    -0.01387    -0.00946
 
  Peak memory usage:    861 Mb
  
  end of program scf
   
 Time(scf)  user:    10306.0  user+sys:    10392.0  wallclock:    11516.6
  
  start of program ch
  
  gridpoints used for charge fit        16666
    out of a possible maximum of        19242
  
   Electrostatic potential fitting constrained to reproduce
     total charge:                yes
     dipole moment:               no 
     traceless quadrupole moment: no 
     traceless octapole moment:   no 
  
  Atomic charges from electrostatic potential: 
   
 Atom       C1           C2           C3           C4           C5      
 Charge   -0.00896     -0.11928     -0.20745      0.27622      0.14386
   
 Atom       C6           C7           C8           C9           C10     
 Charge   -0.24272     -0.43914     -0.07095     -0.02344     -0.36342
   
 Atom       C11          O12          Si13         C14          C15     
 Charge    0.20338     -0.15695     -0.06630      0.12807      0.37449
   
 Atom       C16          C17          C18          C19          C20     
 Charge    0.26283     -0.12689     -0.40646     -0.25810      0.15739
   
 Atom       Si21         O22          C23          C24          P25     
 Charge   -0.45615     -0.34534     -0.17499     -0.07598      0.93764
   
 Atom       O26          N27          C28          C29          C30     
 Charge   -0.65927     -0.56276      0.04168      0.00307      0.08030
   
 Atom       C31          C32          C33          C34          C35     
 Charge    0.46629      0.16758      0.21495      0.00299     -0.08204
   
 Atom       C36          C37          C38          C39          C40     
 Charge   -0.05594     -0.09898     -0.18547     -0.03184     -0.30937
   
 Atom       C41          C42          C43          C44          C45     
 Charge   -0.21631     -0.15272     -0.11757     -0.17261     -0.15755
   
 Atom       C46          C47          C48          C49          C50     
 Charge   -0.22532     -0.05228     -0.19431     -0.16613     -0.09366
   
 Atom       C51          C52          C53          C54          C55     
 Charge   -0.13690     -0.13280     -0.07693     -0.16724     -0.18181
   
 Atom       C56          C57          C58          C59          C60     
 Charge   -0.06280     -0.13746     -0.13601     -0.12038     -0.13923
   
 Atom       C61          C62          C63          C64          C65     
 Charge   -0.10717     -0.13383     -0.11554     -0.13217     -0.27843
   
 Atom       C66          C67          C68          C69          C70     
 Charge    0.35299     -0.03309     -0.15129     -0.10747     -0.21799
   
 Atom       N71          S72          O73          O74          C75     
 Charge   -0.28803      0.62198     -0.41195     -0.38137      0.50822
   
 Atom       C76          C77          C78          C79          N80     
 Charge   -0.34000      0.17572     -0.41192      0.36034     -0.56128
   
 Atom       N81          C82          C83          C84          C85     
 Charge   -0.02556     -0.04980     -0.17303     -0.24672      0.10930
   
 Atom       H86          H87          H88          H89          H90     
 Charge    0.07572      0.13941      0.13663      0.18742      0.11535
   
 Atom       H91          H92          H93          H94          H95     
 Charge    0.11589      0.18716      0.14037      0.13130      0.11160
   
 Atom       H96          H97          H98          H99          H100    
 Charge    0.09508      0.11151      0.07110      0.10456      0.13533
   
 Atom       H101         H102         H103         H104         H105    
 Charge   -0.02600      0.16057      0.15022      0.12902      0.07355
   
 Atom       H106         H107         H108         H109         H110    
 Charge    0.11788      0.10841      0.13112      0.10448      0.12744
   
 Atom       H111         H112         H113         H114         H115    
 Charge    0.12373      0.11191      0.11709      0.11920      0.11110
   
 Atom       H116         H117         H118         H119         H120    
 Charge    0.13053      0.12347      0.08392      0.11737      0.11718
   
 Atom       H121         H122         H123         H124         H125    
 Charge    0.11704      0.12334      0.11109      0.11498      0.11522
   
 Atom       H126         H127         H128         H129         H130    
 Charge    0.13747      0.15587      0.11065      0.09920      0.12226
   
 Atom       H131         H132         H133         H134         H135    
 Charge    0.15410      0.16169      0.09915      0.17680      0.04969
   
 Atom       H136         H137         H138         H139         H140    
 Charge    0.29546      0.14832      0.15941      0.18762      0.11244
   
 Atom       S141         O142         C143         O144         F145    
 Charge    0.65805     -0.39966      0.32467     -0.44743     -0.08354
   
 Atom       F146         F147         H148    
 Charge   -0.10586     -0.12447      0.28136
  
  sum of atomic charges:     0.000000
   
 RMS Error   8.99E-04 hartrees
 
  Peak memory usage:    589 Mb
  
  end of program ch
   
 Time(ch)  user:       17.0  user+sys:       17.0  wallclock:       18.6
  
  start of program post
  
  Writing input files for PBF
  Peak memory usage:    536 Mb
  
  end of program post
   
 Time(post)  user:        0.0  user+sys:        0.0  wallclock:        0.2

  start of program pbf

Pbf Version 4.00

Molecular surface area:      861.16774   [A2]
Reaction field energy:       -15.20326   [kT]
  Peak memory usage: 560 Mb

  end of program pbf

 Time(pbf)  user:        9.9  user+sys:        9.9  wallclock:        9.9
  
  start of program solv
  
   number of surface charges from PBF   13434
   sum of surface charges     -0.00035
   
  nuclear repulsion energy.......   20928.586967531 hartrees
  Peak memory usage:    701 Mb
  
  end of program solv
   
 Time(solv)  user:       35.0  user+sys:       35.0  wallclock:       35.3
  
  start of program scf
  
  
       i  u  d  i  g                   
       t  p  i  c  r                                 RMS    maximum
       e  d  i  u  i                       energy  density   DIIS  
       r  t  s  t  d       total energy    change  change    error 
  
etot    1  N  N  1  U   -5577.23822253637           5.7E-05  7.7E-04
etot    2  N  Y  1  U   -5577.23856368989  3.4E-04  2.3E-05  1.1E-03
etot    3  N  Y  1  U   -5577.23903608357  4.7E-04  8.3E-06  4.9E-04
etot    4  N  Y  1  U   -5577.23914216710  1.1E-04  3.7E-06  1.4E-04
etot    5  N  N  1  U   -5577.23915859518  1.6E-05  0.0E+00  0.0E+00
  
  
 Energy components, in hartrees:
   (A)  Total zero-electron terms....   20931.41296298801
   (B)    Nuclear-nuclear............   20928.58696753111
   (C)    Nuclear-solvent............       2.82599545690
   (E)  Total one-electron terms.....  -49395.70305739924
   (F)    Electron-nuclear...........  -54928.09225774412
   (G)    Electron-solvent...........      -2.86027784875
   (H)    Kinetic....................    5535.24947819363
   (I)  Total two-electron terms.....   22887.05093581605
   (J)    Coulomb....................   23540.30522573279
   (K)    Exchange+Correlation.......    -653.25428991674
   (L)  Electronic energy............  -26508.65212158319  (E+I)
   (N)  Total quantum mech. energy...   -5577.23915859518  (A+L)
   (O)  Gas phase energy.............   -5577.20580824813
   (P)  Solution phase energy........   -5577.22201739926  (Q+R+S)
   (Q)    Total solute energy........   -5577.20487620333  (N-C-G)
   (R)    Total solvent energy.......      -0.01714119592  (C/2+G/2)
   (S)    Solute cavity energy.......       0.00000000000
   (U)  Reorganization energy........       0.00093204480  (Q-O)
   (V)  Solvation energy.............      -0.01620915112  (P-O)
  
 SCFE:  Solution phase energy: DFT(b3lyp)      -5577.22201739926 hartrees
        SCF iterations:   5
  
 
 HOMO energy:    -0.20039
 LUMO energy:    -0.09336
 
  Orbital energies (hartrees): 
   -89.12544   -89.09239   -77.24199   -66.11532   -66.10890   -24.72141
   -24.72034   -24.71999   -19.19881   -19.19324   -19.16045   -19.15719
   -19.11760   -19.11716   -19.11558   -14.39534   -14.39065   -14.36039
   -14.31349   -10.42509   -10.29078   -10.26469   -10.25598   -10.25528
   -10.25512   -10.24419   -10.24399   -10.22383   -10.21895   -10.21885
   -10.21823   -10.21801   -10.20870   -10.20810   -10.20803   -10.20304
   -10.20284   -10.20193   -10.20039   -10.19969   -10.19873   -10.19821
   -10.19624   -10.19559   -10.19408   -10.19368   -10.19188   -10.19118
   -10.19078   -10.19063   -10.19044   -10.18994   -10.18953   -10.18920
   -10.18854   -10.18766   -10.18736   -10.18703   -10.18698   -10.18666
   -10.18628   -10.18606   -10.18549   -10.18535   -10.18534   -10.18512
   -10.18490   -10.18412   -10.18404   -10.18396   -10.18368   -10.18287
   -10.18232   -10.18133   -10.17958   -10.17786   -10.17690   -10.17528
   -10.17465   -10.17442   -10.17340   -10.17330   -10.17267   -10.17247
   -10.17178   -10.17127   -10.17095   -10.17052   -10.17009   -10.16688
   -10.16399   -10.15861    -8.15139    -8.11686    -6.68653    -6.11662
    -6.11553    -6.11393    -6.08148    -6.08091    -6.08061    -5.26179
    -5.25571    -4.85120    -4.85036    -4.84794    -3.62086    -3.62039
    -3.62011    -3.61465    -3.61450    -3.61391    -1.30084    -1.21367
    -1.21159    -1.12788    -1.10315    -1.08437    -1.06315    -1.01941
    -1.00529    -0.97489    -0.97435    -0.97199    -0.95381    -0.87738
    -0.86880    -0.86759    -0.85861    -0.84618    -0.84060    -0.83990
    -0.83651    -0.82900    -0.82555    -0.82252    -0.81882    -0.80618
    -0.80436    -0.79778    -0.78749    -0.78201    -0.75687    -0.75426
    -0.75135    -0.74956    -0.74655    -0.74490    -0.74068    -0.73966
    -0.73774    -0.73678    -0.73519    -0.73308    -0.73139    -0.73021
    -0.72903    -0.72491    -0.72432    -0.72190    -0.71379    -0.71076
    -0.70441    -0.67427    -0.66494    -0.65159    -0.63254    -0.62786
    -0.62007    -0.61814    -0.61425    -0.61259    -0.61039    -0.60559
    -0.60454    -0.60014    -0.59526    -0.59395    -0.59381    -0.59261
    -0.59091    -0.59011    -0.58634    -0.58603    -0.58182    -0.58121
    -0.57872    -0.57724    -0.57587    -0.57465    -0.57266    -0.57134
    -0.56595    -0.56340    -0.55537    -0.54600    -0.54139    -0.53204
    -0.52725    -0.52561    -0.52003    -0.50819    -0.50637    -0.50552
    -0.50385    -0.50061    -0.49743    -0.49649    -0.49599    -0.49382
    -0.48708    -0.48533    -0.48008    -0.47391    -0.47026    -0.46858
    -0.46605    -0.46446    -0.46134    -0.46106    -0.45962    -0.45515
    -0.45230    -0.45055    -0.45025    -0.44938    -0.44837    -0.44644
    -0.44407    -0.44162    -0.44101    -0.43931    -0.43823    -0.43679
    -0.43533    -0.43460    -0.43336    -0.43177    -0.43065    -0.42912
    -0.42806    -0.42664    -0.42515    -0.42431    -0.42306    -0.42223
    -0.42139    -0.42094    -0.41939    -0.41774    -0.41707    -0.41626
    -0.41593    -0.41402    -0.41338    -0.41299    -0.41272    -0.41111
    -0.40636    -0.40442    -0.40264    -0.39508    -0.39464    -0.39411
    -0.39159    -0.38826    -0.38474    -0.38456    -0.38337    -0.37983
    -0.37604    -0.37161    -0.37140    -0.36778    -0.36479    -0.36452
    -0.35948    -0.35885    -0.35830    -0.35550    -0.35380    -0.35252
    -0.35097    -0.34663    -0.34551    -0.34427    -0.34156    -0.33975
    -0.33922    -0.33765    -0.33580    -0.33421    -0.33374    -0.33163
    -0.33086    -0.32661    -0.32500    -0.32336    -0.32149    -0.32100
    -0.31999    -0.31615    -0.31066    -0.30608    -0.30406    -0.30116
    -0.29759    -0.29369    -0.29152    -0.28979    -0.28739    -0.28666
    -0.28553    -0.28291    -0.28241    -0.28226    -0.27745    -0.27357
    -0.27224    -0.26755    -0.26443    -0.26034    -0.25907    -0.25319
    -0.25285    -0.25194    -0.24888    -0.24752    -0.24682    -0.24537
    -0.24428    -0.23932    -0.23536    -0.23488    -0.23338    -0.22920
    -0.22839    -0.22533    -0.21905    -0.20039    -0.09336    -0.05243
    -0.04380    -0.03332    -0.03205    -0.01856    -0.01732    -0.01629
    -0.01438    -0.01190
 
  Peak memory usage:    859 Mb
  
  end of program scf
   
 Time(scf)  user:     2536.0  user+sys:     2556.0  wallclock:     2574.6
  
  start of program sole
  
    SCRF                   solvation energy
  iteration          Hartrees            kcal/mol
     0               0.0000000            0.0000
     1              -0.0162092          -10.1714
  
  solvation energy not yet converged... 
  
  Peak memory usage:    635 Mb
  
  end of program sole
   
 Time(sole)  user:        0.0  user+sys:        0.0  wallclock:        0.2
  
  start of program ch
  
  gridpoints used for charge fit        16666
    out of a possible maximum of        16666
  
   Electrostatic potential fitting constrained to reproduce
     total charge:                yes
     dipole moment:               no 
     traceless quadrupole moment: no 
     traceless octapole moment:   no 
  
  Atomic charges from electrostatic potential: 
   
 Atom       C1           C2           C3           C4           C5      
 Charge   -0.00774     -0.11950     -0.21690      0.27926      0.14764
   
 Atom       C6           C7           C8           C9           C10     
 Charge   -0.25065     -0.45410     -0.07592     -0.03734     -0.36999
   
 Atom       C11          O12          Si13         C14          C15     
 Charge    0.22534     -0.14972     -0.09476      0.13087      0.37428
   
 Atom       C16          C17          C18          C19          C20     
 Charge    0.26287     -0.13243     -0.41453     -0.26532      0.17144
   
 Atom       Si21         O22          C23          C24          P25     
 Charge   -0.47818     -0.34034     -0.18127     -0.08265      0.92911
   
 Atom       O26          N27          C28          C29          C30     
 Charge   -0.65727     -0.54881      0.05150      0.00234      0.09542
   
 Atom       C31          C32          C33          C34          C35     
 Charge    0.47662      0.17073      0.21912      0.00315     -0.09176
   
 Atom       C36          C37          C38          C39          C40     
 Charge   -0.05434     -0.09946     -0.20017     -0.03354     -0.31953
   
 Atom       C41          C42          C43          C44          C45     
 Charge   -0.21026     -0.15333     -0.11609     -0.17975     -0.16222
   
 Atom       C46          C47          C48          C49          C50     
 Charge   -0.23151     -0.06106     -0.20142     -0.17692     -0.09934
   
 Atom       C51          C52          C53          C54          C55     
 Charge   -0.14566     -0.13781     -0.08376     -0.17673     -0.18980
   
 Atom       C56          C57          C58          C59          C60     
 Charge   -0.06323     -0.15261     -0.14487     -0.12610     -0.15033
   
 Atom       C61          C62          C63          C64          C65     
 Charge   -0.11145     -0.14431     -0.11856     -0.14016     -0.28011
   
 Atom       C66          C67          C68          C69          C70     
 Charge    0.36146     -0.03193     -0.17181     -0.10553     -0.22597
   
 Atom       N71          S72          O73          O74          C75     
 Charge   -0.27611      0.63084     -0.43293     -0.39240      0.51035
   
 Atom       C76          C77          C78          C79          N80     
 Charge   -0.34071      0.18073     -0.41629      0.37044     -0.58456
   
 Atom       N81          C82          C83          C84          C85     
 Charge   -0.02784     -0.03852     -0.17764     -0.24703      0.10317
   
 Atom       H86          H87          H88          H89          H90     
 Charge    0.07737      0.14705      0.14314      0.19463      0.12305
   
 Atom       H91          H92          H93          H94          H95     
 Charge    0.11843      0.19200      0.14649      0.13823      0.11853
   
 Atom       H96          H97          H98          H99          H100    
 Charge    0.09774      0.11521      0.07183      0.10788      0.14162
   
 Atom       H101         H102         H103         H104         H105    
 Charge   -0.02290      0.16838      0.14937      0.13202      0.07255
   
 Atom       H106         H107         H108         H109         H110    
 Charge    0.12152      0.10771      0.13781      0.11334      0.13635
   
 Atom       H111         H112         H113         H114         H115    
 Charge    0.13154      0.11910      0.12441      0.12438      0.11437
   
 Atom       H116         H117         H118         H119         H120    
 Charge    0.13530      0.12695      0.08733      0.12441      0.12423
   
 Atom       H121         H122         H123         H124         H125    
 Charge    0.12400      0.13120      0.11870      0.12377      0.12134
   
 Atom       H126         H127         H128         H129         H130    
 Charge    0.14588      0.16201      0.10533      0.11105      0.12747
   
 Atom       H131         H132         H133         H134         H135    
 Charge    0.15719      0.15876      0.10768      0.18617      0.05604
   
 Atom       H136         H137         H138         H139         H140    
 Charge    0.29389      0.15145      0.16767      0.19629      0.11452
   
 Atom       S141         O142         C143         O144         F145    
 Charge    0.65899     -0.39679      0.32417     -0.45969     -0.08245
   
 Atom       F146         F147         H148    
 Charge   -0.10597     -0.12905      0.27528
  
  sum of atomic charges:     0.000000
   
 RMS Error   9.09E-04 hartrees
 
  Peak memory usage:    588 Mb
  
  end of program ch
   
 Time(ch)  user:       17.0  user+sys:       17.0  wallclock:       18.6
  
  start of program post
  
  Writing input files for PBF
  Peak memory usage:    536 Mb
  
  end of program post
   
 Time(post)  user:        0.0  user+sys:        0.0  wallclock:        0.2

  start of program pbf

Pbf Version 4.00

Molecular surface area:      861.16774   [A2]
Reaction field energy:       -17.37757   [kT]
  Peak memory usage: 560 Mb

  end of program pbf

 Time(pbf)  user:       11.5  user+sys:       11.6  wallclock:       11.6
  
  start of program solv
  
   number of surface charges from PBF   13434
   sum of surface charges     -0.00036
   
  nuclear repulsion energy.......   20928.586967531 hartrees
  Peak memory usage:    701 Mb
  
  end of program solv
   
 Time(solv)  user:       35.0  user+sys:       35.0  wallclock:       35.5
  
  start of program scf
  
  
       i  u  d  i  g                   
       t  p  i  c  r                                 RMS    maximum
       e  d  i  u  i                       energy  density   DIIS  
       r  t  s  t  d       total energy    change  change    error 
  
etot    1  N  N  1  U   -5577.24149564180           7.7E-06  9.5E-05
etot    2  N  N  1  U   -5577.24147310173 -2.3E-05  0.0E+00  0.0E+00
  
  
 Energy components, in hartrees:
   (A)  Total zero-electron terms....   20931.68990229492
   (B)    Nuclear-nuclear............   20928.58696753111
   (C)    Nuclear-solvent............       3.10293476381
   (E)  Total one-electron terms.....  -49396.59115524655
   (F)    Electron-nuclear...........  -54928.72243083727
   (G)    Electron-solvent...........      -3.13989623205
   (H)    Kinetic....................    5535.27117182276
   (I)  Total two-electron terms.....   22887.65977984991
   (J)    Coulomb....................   23540.91727870981
   (K)    Exchange+Correlation.......    -653.25749885991
   (L)  Electronic energy............  -26508.93137539665  (E+I)
   (N)  Total quantum mech. energy...   -5577.24147310173  (A+L)
   (O)  Gas phase energy.............   -5577.20580824813
   (P)  Solution phase energy........   -5577.22299236761  (Q+R+S)
   (Q)    Total solute energy........   -5577.20451163349  (N-C-G)
   (R)    Total solvent energy.......      -0.01848073412  (C/2+G/2)
   (S)    Solute cavity energy.......       0.00000000000
   (U)  Reorganization energy........       0.00129661464  (Q-O)
   (V)  Solvation energy.............      -0.01718411948  (P-O)
  
 SCFE:  Solution phase energy: DFT(b3lyp)      -5577.22299236761 hartrees
        SCF iterations:   2
  
 
 HOMO energy:    -0.22870
 LUMO energy:    -0.09209
 
  Orbital energies (hartrees): 
   -59.70973   -51.39476   -46.00031   -44.16189   -37.97363   -34.57515
   -31.00192   -28.65400   -27.84180   -24.37605   -23.15684   -22.49281
   -20.97994   -19.93823   -19.15635   -18.73212   -16.32211   -16.11951
   -15.95911   -15.29592   -15.29031   -14.71012   -14.64303   -14.50815
   -14.49224   -13.93599   -13.19807   -12.71200   -12.36894   -12.26959
   -11.89616   -11.76522   -11.72513   -11.52894   -11.41711   -11.28766
   -11.25076   -11.24401   -11.18978   -11.04652   -11.00315   -10.96856
   -10.90675   -10.87284   -10.83520   -10.71262   -10.69866   -10.65494
   -10.62613   -10.52230   -10.47977   -10.43114   -10.35492   -10.33204
   -10.32931   -10.31998   -10.30659   -10.30326   -10.30066   -10.26480
   -10.26264   -10.21337   -10.21215   -10.20977   -10.20611   -10.20229
   -10.19175   -10.16140   -10.12798   -10.11022   -10.10107   -10.08192
   -10.08154   -10.06811   -10.03970   -10.03787   -10.03092   -10.01904
   -10.00001    -9.98754    -9.97293    -9.97183    -9.85784    -9.77291
    -9.69330    -9.67649    -9.66692    -9.61981    -9.52925    -9.48996
    -9.47667    -9.36413    -9.08215    -9.07318    -8.99414    -8.99089
    -8.79748    -8.57199    -8.46894    -8.46171    -8.19488    -7.87607
    -7.51986    -6.84978    -6.75950    -6.44422    -6.21087    -5.88467
    -5.72947    -5.72591    -4.81732    -3.02219    -2.62964    -1.21044
    -1.12571    -1.00125    -0.99474    -0.95866    -0.92565    -0.90109
    -0.88018    -0.86999    -0.86313    -0.85616    -0.83625    -0.83203
    -0.82410    -0.79505    -0.79083    -0.78927    -0.78531    -0.76309
    -0.75790    -0.75772    -0.75700    -0.75618    -0.75096    -0.74996
    -0.74464    -0.74241    -0.74074    -0.73838    -0.73706    -0.73678
    -0.72608    -0.70418    -0.70141    -0.69757    -0.69545    -0.69470
    -0.69303    -0.69192    -0.69101    -0.68429    -0.68159    -0.67395
    -0.67151    -0.66681    -0.66519    -0.66424    -0.66002    -0.65235
    -0.64989    -0.64731    -0.63176    -0.63143    -0.62773    -0.62323
    -0.62098    -0.61991    -0.61779    -0.61286    -0.60561    -0.59986
    -0.59491    -0.58540    -0.58339    -0.58173    -0.58068    -0.58054
    -0.57628    -0.57266    -0.57113    -0.55993    -0.55993    -0.55480
    -0.55478    -0.55246    -0.55135    -0.54801    -0.54665    -0.54605
    -0.54175    -0.54143    -0.54098    -0.53672    -0.53227    -0.52211
    -0.52060    -0.51897    -0.51778    -0.51622    -0.51420    -0.51192
    -0.50865    -0.50589    -0.50516    -0.50511    -0.50484    -0.50383
    -0.50306    -0.50118    -0.50071    -0.49527    -0.49259    -0.49223
    -0.48858    -0.48791    -0.48393    -0.48386    -0.48331    -0.48324
    -0.48204    -0.47515    -0.47386    -0.47336    -0.46969    -0.46905
    -0.46867    -0.46793    -0.46778    -0.46555    -0.46530    -0.46386
    -0.45667    -0.45592    -0.45506    -0.45431    -0.45417    -0.45374
    -0.45303    -0.45193    -0.45177    -0.45175    -0.44994    -0.44942
    -0.44809    -0.44548    -0.44527    -0.44387    -0.44302    -0.44229
    -0.44175    -0.44072    -0.43969    -0.43818    -0.43713    -0.43672
    -0.43433    -0.43427    -0.43084    -0.42781    -0.42711    -0.42683
    -0.42643    -0.42568    -0.42538    -0.42425    -0.42416    -0.42309
    -0.41966    -0.41900    -0.41667    -0.41604    -0.41478    -0.41341
    -0.41080    -0.40879    -0.40846    -0.40830    -0.40660    -0.40653
    -0.40537    -0.40441    -0.40394    -0.40137    -0.39995    -0.39877
    -0.39728    -0.39709    -0.39581    -0.39181    -0.39173    -0.39102
    -0.39030    -0.38982    -0.38649    -0.38166    -0.38089    -0.37765
    -0.37575    -0.37449    -0.37268    -0.37268    -0.37245    -0.37234
    -0.37111    -0.37034    -0.36483    -0.36293    -0.36165    -0.35579
    -0.35269    -0.35197    -0.34896    -0.34245    -0.34038    -0.32879
    -0.32777    -0.32095    -0.31792    -0.30600    -0.29228    -0.28564
    -0.27605    -0.26937    -0.26793    -0.26102    -0.25939    -0.25775
    -0.25737    -0.25224    -0.24903    -0.24643    -0.24227    -0.24120
    -0.24119    -0.24042    -0.23817    -0.22870    -0.09209    -0.05139
    -0.04350    -0.03254    -0.03186    -0.01788    -0.01691    -0.01588
    -0.01376    -0.01156
 
  Peak memory usage:    859 Mb
  
  end of program scf
   
 Time(scf)  user:      661.0  user+sys:      667.0  wallclock:      674.0
  
  start of program sole
  
    SCRF                   solvation energy
  iteration          Hartrees            kcal/mol
     0               0.0000000            0.0000
     1              -0.0162092          -10.1714
     2              -0.0171841          -10.7832
  
  solvation energy not yet converged... 
  
  Peak memory usage:    635 Mb
  
  end of program sole
   
 Time(sole)  user:        0.0  user+sys:        0.0  wallclock:        0.2
  
  start of program ch
  
  gridpoints used for charge fit        16666
    out of a possible maximum of        16666
  
   Electrostatic potential fitting constrained to reproduce
     total charge:                yes
     dipole moment:               no 
     traceless quadrupole moment: no 
     traceless octapole moment:   no 
  
  Atomic charges from electrostatic potential: 
   
 Atom       C1           C2           C3           C4           C5      
 Charge   -0.00933     -0.11920     -0.21616      0.27907      0.14715
   
 Atom       C6           C7           C8           C9           C10     
 Charge   -0.25033     -0.45394     -0.07529     -0.03984     -0.37203
   
 Atom       C11          O12          Si13         C14          C15     
 Charge    0.22670     -0.14845     -0.09918      0.13170      0.37250
   
 Atom       C16          C17          C18          C19          C20     
 Charge    0.26361     -0.13403     -0.41369     -0.26541      0.17083
   
 Atom       Si21         O22          C23          C24          P25     
 Charge   -0.47885     -0.33920     -0.17997     -0.08240      0.92631
   
 Atom       O26          N27          C28          C29          C30     
 Charge   -0.65567     -0.54775      0.05213      0.00162      0.09627
   
 Atom       C31          C32          C33          C34          C35     
 Charge    0.47496      0.16961      0.21773      0.00230     -0.09481
   
 Atom       C36          C37          C38          C39          C40     
 Charge   -0.05416     -0.09992     -0.20104     -0.03489     -0.31975
   
 Atom       C41          C42          C43          C44          C45     
 Charge   -0.20876     -0.15300     -0.11671     -0.18019     -0.16386
   
 Atom       C46          C47          C48          C49          C50     
 Charge   -0.23114     -0.06081     -0.20041     -0.17750     -0.09922
   
 Atom       C51          C52          C53          C54          C55     
 Charge   -0.14592     -0.13767     -0.08412     -0.17699     -0.19127
   
 Atom       C56          C57          C58          C59          C60     
 Charge   -0.06163     -0.15319     -0.14537     -0.12559     -0.15046
   
 Atom       C61          C62          C63          C64          C65     
 Charge   -0.11136     -0.14388     -0.11804     -0.13873     -0.28021
   
 Atom       C66          C67          C68          C69          C70     
 Charge    0.35916     -0.03384     -0.17144     -0.10319     -0.23084
   
 Atom       N71          S72          O73          O74          C75     
 Charge   -0.27507      0.62446     -0.43280     -0.38978      0.50760
   
 Atom       C76          C77          C78          C79          N80     
 Charge   -0.34046      0.18252     -0.41433      0.37062     -0.58729
   
 Atom       N81          C82          C83          C84          C85     
 Charge   -0.02991     -0.03270     -0.17426     -0.24541      0.10183
   
 Atom       H86          H87          H88          H89          H90     
 Charge    0.07791      0.14756      0.14347      0.19559      0.12373
   
 Atom       H91          H92          H93          H94          H95     
 Charge    0.11834      0.19205      0.14675      0.13858      0.11898
   
 Atom       H96          H97          H98          H99          H100    
 Charge    0.09761      0.11585      0.07188      0.10800      0.14202
   
 Atom       H101         H102         H103         H104         H105    
 Charge   -0.02177      0.16820      0.14867      0.13197      0.07247
   
 Atom       H106         H107         H108         H109         H110    
 Charge    0.12173      0.10744      0.13846      0.11449      0.13728
   
 Atom       H111         H112         H113         H114         H115    
 Charge    0.13226      0.11977      0.12506      0.12465      0.11427
   
 Atom       H116         H117         H118         H119         H120    
 Charge    0.13525      0.12692      0.08793      0.12503      0.12489
   
 Atom       H121         H122         H123         H124         H125    
 Charge    0.12457      0.13181      0.11955      0.12474      0.12189
   
 Atom       H126         H127         H128         H129         H130    
 Charge    0.14657      0.16262      0.10500      0.11191      0.12764
   
 Atom       H131         H132         H133         H134         H135    
 Charge    0.15798      0.15812      0.10864      0.18751      0.05709
   
 Atom       H136         H137         H138         H139         H140    
 Charge    0.29279      0.15117      0.16812      0.19655      0.11384
   
 Atom       S141         O142         C143         O144         F145    
 Charge    0.65893     -0.39573      0.32377     -0.46030     -0.08218
   
 Atom       F146         F147         H148    
 Charge   -0.10600     -0.12922      0.27329
  
  sum of atomic charges:     0.000000
   
 RMS Error   9.09E-04 hartrees
 
  Peak memory usage:    588 Mb
  
  end of program ch
   
 Time(ch)  user:       17.0  user+sys:       17.0  wallclock:       18.5
  
  start of program post
  
  Writing input files for PBF
  Peak memory usage:    536 Mb
  
  end of program post
   
 Time(post)  user:        0.0  user+sys:        0.0  wallclock:        0.2

  start of program pbf

Pbf Version 4.00

Molecular surface area:      861.16774   [A2]
Reaction field energy:       -17.74742   [kT]
  Peak memory usage: 560 Mb

  end of program pbf

 Time(pbf)  user:       11.6  user+sys:       11.7  wallclock:       11.7
  
  start of program solv
  
   number of surface charges from PBF   13434
   sum of surface charges     -0.00037
   
  nuclear repulsion energy.......   20928.586967531 hartrees
  Peak memory usage:    701 Mb
  
  end of program solv
   
 Time(solv)  user:       35.0  user+sys:       35.0  wallclock:       35.3
  
  start of program scf
  
  
       i  u  d  i  g                   
       t  p  i  c  r                                 RMS    maximum
       e  d  i  u  i                       energy  density   DIIS  
       r  t  s  t  d       total energy    change  change    error 
  
etot    1  N  N  1  U   -5577.24184694005           1.3E-05  1.9E-04
etot    2  N  Y  1  U   -5577.24167212763 -1.7E-04  9.2E-06  4.8E-04
etot    3  N  Y  1  U   -5577.24187836098  2.1E-04  4.7E-07  1.3E-05
etot    4  N  N  1  U   -5577.24187861797  2.6E-07  0.0E+00  0.0E+00
  
  
 Energy components, in hartrees:
   (A)  Total zero-electron terms....   20931.76506052358
   (B)    Nuclear-nuclear............   20928.58696753111
   (C)    Nuclear-solvent............       3.17809299247
   (E)  Total one-electron terms.....  -49396.33931879349
   (F)    Electron-nuclear...........  -54928.37939478616
   (G)    Electron-solvent...........      -3.21533515673
   (H)    Kinetic....................    5535.25541114940
   (I)  Total two-electron terms.....   22887.33237965194
   (J)    Coulomb....................   23540.58806056628
   (K)    Exchange+Correlation.......    -653.25568091434
   (L)  Electronic energy............  -26509.00693914155  (E+I)
   (N)  Total quantum mech. energy...   -5577.24187861797  (A+L)
   (O)  Gas phase energy.............   -5577.20580824813
   (P)  Solution phase energy........   -5577.22325753584  (Q+R+S)
   (Q)    Total solute energy........   -5577.20463645371  (N-C-G)
   (R)    Total solvent energy.......      -0.01862108213  (C/2+G/2)
   (S)    Solute cavity energy.......       0.00000000000
   (U)  Reorganization energy........       0.00117179442  (Q-O)
   (V)  Solvation energy.............      -0.01744928771  (P-O)
  
 SCFE:  Solution phase energy: DFT(b3lyp)      -5577.22325753584 hartrees
        SCF iterations:   4
  
 
 HOMO energy:    -0.20067
 LUMO energy:    -0.09285
 
  Orbital energies (hartrees): 
   -89.12530   -89.09281   -77.24195   -66.11540   -66.10885   -24.72204
   -24.72117   -24.72093   -19.19859   -19.19348   -19.16182   -19.15881
   -19.11819   -19.11766   -19.11547   -14.39490   -14.38948   -14.36019
   -14.31344   -10.42580   -10.28971   -10.26457   -10.25575   -10.25517
   -10.25507   -10.24357   -10.24348   -10.22331   -10.21894   -10.21791
   -10.21746   -10.21738   -10.20823   -10.20817   -10.20721   -10.20288
   -10.20263   -10.20144   -10.20069   -10.19922   -10.19908   -10.19828
   -10.19649   -10.19545   -10.19383   -10.19359   -10.19167   -10.19140
   -10.19112   -10.19087   -10.19040   -10.19005   -10.18967   -10.18903
   -10.18843   -10.18796   -10.18737   -10.18737   -10.18734   -10.18662
   -10.18655   -10.18638   -10.18580   -10.18565   -10.18557   -10.18542
   -10.18507   -10.18449   -10.18446   -10.18404   -10.18393   -10.18322
   -10.18284   -10.18162   -10.17956   -10.17854   -10.17678   -10.17596
   -10.17538   -10.17499   -10.17421   -10.17364   -10.17303   -10.17234
   -10.17165   -10.17134   -10.17121   -10.17050   -10.17041   -10.16702
   -10.16426   -10.15862    -8.15133    -8.11728    -6.68649    -6.11655
    -6.11548    -6.11385    -6.08189    -6.08132    -6.08103    -5.26188
    -5.25568    -4.85117    -4.85032    -4.84790    -3.62095    -3.62048
    -3.62020    -3.61461    -3.61447    -3.61388    -1.30165    -1.21442
    -1.21246    -1.12845    -1.10319    -1.08479    -1.06314    -1.02025
    -1.00492    -0.97533    -0.97429    -0.97175    -0.95321    -0.87753
    -0.86875    -0.86726    -0.85892    -0.84607    -0.84061    -0.84023
    -0.83674    -0.82965    -0.82571    -0.82214    -0.81898    -0.80643
    -0.80392    -0.79749    -0.78771    -0.78149    -0.75636    -0.75452
    -0.75108    -0.74953    -0.74665    -0.74475    -0.74097    -0.73966
    -0.73786    -0.73708    -0.73539    -0.73320    -0.73154    -0.73042
    -0.72960    -0.72554    -0.72453    -0.72201    -0.71440    -0.71045
    -0.70468    -0.67386    -0.66517    -0.65121    -0.63287    -0.62746
    -0.62027    -0.61831    -0.61432    -0.61219    -0.61005    -0.60512
    -0.60469    -0.60011    -0.59527    -0.59385    -0.59347    -0.59281
    -0.59114    -0.59027    -0.58653    -0.58624    -0.58199    -0.58171
    -0.57937    -0.57740    -0.57658    -0.57494    -0.57278    -0.57145
    -0.56622    -0.56315    -0.55553    -0.54610    -0.54094    -0.53220
    -0.52733    -0.52571    -0.52020    -0.50818    -0.50618    -0.50566
    -0.50395    -0.50092    -0.49724    -0.49665    -0.49602    -0.49370
    -0.48731    -0.48557    -0.48009    -0.47401    -0.46994    -0.46835
    -0.46607    -0.46433    -0.46156    -0.46078    -0.46004    -0.45531
    -0.45271    -0.45060    -0.45030    -0.45004    -0.44854    -0.44652
    -0.44433    -0.44167    -0.44112    -0.43890    -0.43841    -0.43702
    -0.43559    -0.43488    -0.43345    -0.43178    -0.43048    -0.42946
    -0.42823    -0.42700    -0.42548    -0.42479    -0.42293    -0.42224
    -0.42124    -0.42077    -0.41945    -0.41759    -0.41728    -0.41630
    -0.41600    -0.41413    -0.41334    -0.41313    -0.41285    -0.41141
    -0.40687    -0.40460    -0.40281    -0.39495    -0.39460    -0.39408
    -0.39240    -0.38831    -0.38507    -0.38469    -0.38341    -0.38008
    -0.37573    -0.37183    -0.37139    -0.36794    -0.36495    -0.36422
    -0.35951    -0.35889    -0.35831    -0.35586    -0.35394    -0.35275
    -0.35108    -0.34666    -0.34566    -0.34461    -0.34174    -0.33965
    -0.33947    -0.33779    -0.33610    -0.33500    -0.33370    -0.33190
    -0.33113    -0.32706    -0.32531    -0.32383    -0.32173    -0.32120
    -0.32027    -0.31666    -0.31086    -0.30618    -0.30385    -0.30131
    -0.29771    -0.29385    -0.29164    -0.29006    -0.28756    -0.28667
    -0.28560    -0.28276    -0.28238    -0.28212    -0.27765    -0.27396
    -0.27245    -0.26771    -0.26399    -0.25998    -0.25927    -0.25319
    -0.25281    -0.25182    -0.24924    -0.24788    -0.24678    -0.24568
    -0.24394    -0.23950    -0.23558    -0.23544    -0.23355    -0.22981
    -0.22863    -0.22551    -0.21924    -0.20067    -0.09285    -0.05216
    -0.04405    -0.03301    -0.03226    -0.01822    -0.01744    -0.01622
    -0.01406    -0.01201
 
  Peak memory usage:    859 Mb
  
  end of program scf
   
 Time(scf)  user:     1887.0  user+sys:     1902.0  wallclock:     1917.6
  
  start of program sole
  
    SCRF                   solvation energy
  iteration          Hartrees            kcal/mol
     0               0.0000000            0.0000
     1              -0.0162092          -10.1714
     2              -0.0171841          -10.7832
     3              -0.0174493          -10.9496
  
  solvation energy not yet converged... 
  
  Peak memory usage:    635 Mb
  
  end of program sole
   
 Time(sole)  user:        0.0  user+sys:        0.0  wallclock:        0.1
  
  start of program ch
  
  gridpoints used for charge fit        16666
    out of a possible maximum of        16666
  
   Electrostatic potential fitting constrained to reproduce
     total charge:                yes
     dipole moment:               no 
     traceless quadrupole moment: no 
     traceless octapole moment:   no 
  
  Atomic charges from electrostatic potential: 
   
 Atom       C1           C2           C3           C4           C5      
 Charge   -0.00825     -0.11924     -0.21700      0.27911      0.14768
   
 Atom       C6           C7           C8           C9           C10     
 Charge   -0.25075     -0.45490     -0.07580     -0.03903     -0.37099
   
 Atom       C11          O12          Si13         C14          C15     
 Charge    0.22717     -0.14880     -0.09797      0.13142      0.37386
   
 Atom       C16          C17          C18          C19          C20     
 Charge    0.26308     -0.13315     -0.41472     -0.26567      0.17167
   
 Atom       Si21         O22          C23          C24          P25     
 Charge   -0.47898     -0.33949     -0.18110     -0.08276      0.92726
   
 Atom       O26          N27          C28          C29          C30     
 Charge   -0.65636     -0.54699      0.05251      0.00209      0.09670
   
 Atom       C31          C32          C33          C34          C35     
 Charge    0.47598      0.17041      0.21902      0.00279     -0.09348
   
 Atom       C36          C37          C38          C39          C40     
 Charge   -0.05418     -0.09945     -0.20121     -0.03403     -0.31972
   
 Atom       C41          C42          C43          C44          C45     
 Charge   -0.20884     -0.15320     -0.11625     -0.18023     -0.16304
   
 Atom       C46          C47          C48          C49          C50     
 Charge   -0.23160     -0.06144     -0.20129     -0.17764     -0.09947
   
 Atom       C51          C52          C53          C54          C55     
 Charge   -0.14618     -0.13802     -0.08418     -0.17739     -0.19109
   
 Atom       C56          C57          C58          C59          C60     
 Charge   -0.06199     -0.15413     -0.14539     -0.12608     -0.15080
   
 Atom       C61          C62          C63          C64          C65     
 Charge   -0.11173     -0.14462     -0.11850     -0.14030     -0.27973
   
 Atom       C66          C67          C68          C69          C70     
 Charge    0.35998     -0.03132     -0.17288     -0.10444     -0.22803
   
 Atom       N71          S72          O73          O74          C75     
 Charge   -0.27241      0.62738     -0.43418     -0.39180      0.50953
   
 Atom       C76          C77          C78          C79          N80     
 Charge   -0.34098      0.18162     -0.41582      0.37069     -0.58656
   
 Atom       N81          C82          C83          C84          C85     
 Charge   -0.02809     -0.03682     -0.17627     -0.24641      0.10185
   
 Atom       H86          H87          H88          H89          H90     
 Charge    0.07749      0.14761      0.14350      0.19528      0.12379
   
 Atom       H91          H92          H93          H94          H95     
 Charge    0.11822      0.19209      0.14676      0.13867      0.11903
   
 Atom       H96          H97          H98          H99          H100    
 Charge    0.09747      0.11558      0.07172      0.10782      0.14192
   
 Atom       H101         H102         H103         H104         H105    
 Charge   -0.02226      0.16859      0.14867      0.13191      0.07224
   
 Atom       H106         H107         H108         H109         H110    
 Charge    0.12148      0.10742      0.13846      0.11447      0.13725
   
 Atom       H111         H112         H113         H114         H115    
 Charge    0.13217      0.11970      0.12498      0.12454      0.11417
   
 Atom       H116         H117         H118         H119         H120    
 Charge    0.13531      0.12713      0.08758      0.12504      0.12481
   
 Atom       H121         H122         H123         H124         H125    
 Charge    0.12457      0.13176      0.11951      0.12474      0.12180
   
 Atom       H126         H127         H128         H129         H130    
 Charge    0.14677      0.16231      0.10459      0.11180      0.12781
   
 Atom       H131         H132         H133         H134         H135    
 Charge    0.15746      0.15811      0.10869      0.18758      0.05685
   
 Atom       H136         H137         H138         H139         H140    
 Charge    0.29333      0.15166      0.16862      0.19685      0.11426
   
 Atom       S141         O142         C143         O144         F145    
 Charge    0.65872     -0.39611      0.32391     -0.46040     -0.08230
   
 Atom       F146         F147         H148    
 Charge   -0.10600     -0.12942      0.27327
  
  sum of atomic charges:     0.000000
   
 RMS Error   9.10E-04 hartrees
 
  Peak memory usage:    588 Mb
  
  end of program ch
   
 Time(ch)  user:       17.0  user+sys:       17.0  wallclock:       18.5
  
  start of program post
  
  Writing input files for PBF
  Peak memory usage:    536 Mb
  
  end of program post
   
 Time(post)  user:        0.0  user+sys:        0.0  wallclock:        0.2

  start of program pbf

Pbf Version 4.00

Molecular surface area:      861.16774   [A2]
Reaction field energy:       -17.65542   [kT]
  Peak memory usage: 560 Mb

  end of program pbf

 Time(pbf)  user:       11.4  user+sys:       11.5  wallclock:       11.5
  
  start of program solv
  
   number of surface charges from PBF   13434
   sum of surface charges     -0.00037
   
  nuclear repulsion energy.......   20928.586967531 hartrees
  Peak memory usage:    701 Mb
  
  end of program solv
   
 Time(solv)  user:       35.0  user+sys:       35.0  wallclock:       35.3
  
  start of program scf
  
  
       i  u  d  i  g                   
       t  p  i  c  r                                 RMS    maximum
       e  d  i  u  i                       energy  density   DIIS  
       r  t  s  t  d       total energy    change  change    error 
  
etot    1  N  N  1  U   -5577.24179052528           7.8E-07  1.0E-05
etot    2  N  N  1  U   -5577.24179045715 -6.8E-08  0.0E+00  0.0E+00
  
  
 Energy components, in hartrees:
   (A)  Total zero-electron terms....   20931.73899276302
   (B)    Nuclear-nuclear............   20928.58696753111
   (C)    Nuclear-solvent............       3.15202523192
   (E)  Total one-electron terms.....  -49396.27087982865
   (F)    Electron-nuclear...........  -54928.33634957753
   (G)    Electron-solvent...........      -3.18915195299
   (H)    Kinetic....................    5535.25462170188
   (I)  Total two-electron terms.....   22887.29009660847
   (J)    Coulomb....................   23540.54568879866
   (K)    Exchange+Correlation.......    -653.25559219019
   (L)  Electronic energy............  -26508.98078322017  (E+I)
   (N)  Total quantum mech. energy...   -5577.24179045715  (A+L)
   (O)  Gas phase energy.............   -5577.20580824813
   (P)  Solution phase energy........   -5577.22322709661  (Q+R+S)
   (Q)    Total solute energy........   -5577.20466373608  (N-C-G)
   (R)    Total solvent energy.......      -0.01856336054  (C/2+G/2)
   (S)    Solute cavity energy.......       0.00000000000
   (U)  Reorganization energy........       0.00114451205  (Q-O)
   (V)  Solvation energy.............      -0.01741884848  (P-O)
  
 SCFE:  Solution phase energy: DFT(b3lyp)      -5577.22322709661 hartrees
        SCF iterations:   2
  
 
 HOMO energy:    -0.20074
 LUMO energy:    -0.09287
 
  Orbital energies (hartrees): 
   -89.12551   -89.09285   -77.24195   -66.11540   -66.10903   -24.72205
   -24.72117   -24.72094   -19.19854   -19.19349   -19.16207   -19.15870
   -19.11844   -19.11751   -19.11542   -14.39485   -14.38950   -14.36022
   -14.31341   -10.42582   -10.28984   -10.26483   -10.25581   -10.25511
   -10.25501   -10.24375   -10.24340   -10.22318   -10.21903   -10.21799
   -10.21755   -10.21716   -10.20830   -10.20803   -10.20729   -10.20302
   -10.20255   -10.20139   -10.20071   -10.19918   -10.19914   -10.19834
   -10.19649   -10.19539   -10.19370   -10.19369   -10.19167   -10.19132
   -10.19123   -10.19091   -10.19028   -10.19003   -10.18954   -10.18902
   -10.18832   -10.18792   -10.18743   -10.18741   -10.18737   -10.18691
   -10.18651   -10.18639   -10.18579   -10.18565   -10.18557   -10.18537
   -10.18503   -10.18454   -10.18448   -10.18407   -10.18389   -10.18318
   -10.18275   -10.18177   -10.17960   -10.17854   -10.17686   -10.17600
   -10.17546   -10.17497   -10.17427   -10.17350   -10.17309   -10.17232
   -10.17193   -10.17147   -10.17111   -10.17058   -10.17051   -10.16730
   -10.16418   -10.15887    -8.15152    -8.11732    -6.68649    -6.11674
    -6.11567    -6.11404    -6.08194    -6.08136    -6.08107    -5.26189
    -5.25585    -4.85117    -4.85032    -4.84790    -3.62096    -3.62048
    -3.62021    -3.61479    -3.61464    -3.61405    -1.30165    -1.21442
    -1.21247    -1.12855    -1.10320    -1.08483    -1.06316    -1.02033
    -1.00490    -0.97537    -0.97427    -0.97179    -0.95328    -0.87757
    -0.86876    -0.86726    -0.85898    -0.84606    -0.84062    -0.84023
    -0.83677    -0.82967    -0.82573    -0.82210    -0.81898    -0.80646
    -0.80391    -0.79752    -0.78779    -0.78150    -0.75636    -0.75455
    -0.75108    -0.74953    -0.74669    -0.74474    -0.74097    -0.73967
    -0.73787    -0.73711    -0.73540    -0.73323    -0.73159    -0.73044
    -0.72961    -0.72555    -0.72456    -0.72203    -0.71441    -0.71049
    -0.70474    -0.67389    -0.66520    -0.65121    -0.63291    -0.62748
    -0.62029    -0.61833    -0.61435    -0.61220    -0.61006    -0.60514
    -0.60472    -0.60009    -0.59528    -0.59386    -0.59347    -0.59282
    -0.59117    -0.59030    -0.58654    -0.58627    -0.58201    -0.58172
    -0.57937    -0.57743    -0.57659    -0.57495    -0.57279    -0.57148
    -0.56626    -0.56318    -0.55556    -0.54613    -0.54096    -0.53221
    -0.52736    -0.52575    -0.52022    -0.50817    -0.50619    -0.50568
    -0.50397    -0.50093    -0.49726    -0.49666    -0.49602    -0.49371
    -0.48733    -0.48560    -0.48011    -0.47402    -0.46995    -0.46837
    -0.46610    -0.46434    -0.46160    -0.46078    -0.46008    -0.45533
    -0.45272    -0.45060    -0.45031    -0.45005    -0.44855    -0.44654
    -0.44434    -0.44167    -0.44114    -0.43891    -0.43842    -0.43704
    -0.43560    -0.43490    -0.43346    -0.43181    -0.43049    -0.42947
    -0.42825    -0.42701    -0.42550    -0.42481    -0.42293    -0.42225
    -0.42123    -0.42078    -0.41947    -0.41759    -0.41729    -0.41632
    -0.41601    -0.41414    -0.41334    -0.41314    -0.41286    -0.41141
    -0.40687    -0.40462    -0.40284    -0.39498    -0.39458    -0.39409
    -0.39240    -0.38831    -0.38508    -0.38472    -0.38342    -0.38011
    -0.37574    -0.37187    -0.37141    -0.36797    -0.36498    -0.36423
    -0.35952    -0.35890    -0.35830    -0.35587    -0.35396    -0.35278
    -0.35112    -0.34666    -0.34568    -0.34463    -0.34176    -0.33964
    -0.33947    -0.33781    -0.33610    -0.33507    -0.33371    -0.33193
    -0.33116    -0.32709    -0.32533    -0.32385    -0.32175    -0.32122
    -0.32030    -0.31670    -0.31089    -0.30620    -0.30384    -0.30133
    -0.29779    -0.29388    -0.29166    -0.29008    -0.28756    -0.28670
    -0.28566    -0.28279    -0.28243    -0.28213    -0.27771    -0.27398
    -0.27248    -0.26772    -0.26400    -0.25998    -0.25930    -0.25321
    -0.25281    -0.25182    -0.24924    -0.24789    -0.24678    -0.24571
    -0.24396    -0.23952    -0.23560    -0.23547    -0.23360    -0.22981
    -0.22866    -0.22554    -0.21930    -0.20074    -0.09287    -0.05216
    -0.04411    -0.03300    -0.03229    -0.01823    -0.01748    -0.01623
    -0.01407    -0.01203
 
  Peak memory usage:    859 Mb
  
  end of program scf
   
 Time(scf)  user:      648.0  user+sys:      654.0  wallclock:      659.3
  
  start of program sole
  
    SCRF                   solvation energy
  iteration          Hartrees            kcal/mol
     0               0.0000000            0.0000
     1              -0.0162092          -10.1714
     2              -0.0171841          -10.7832
     3              -0.0174493          -10.9496
     4              -0.0174188          -10.9305
  
  stopping: solvation energy converged
  
  iterations:   4    sfinal:    -10.9305 kcal/mol
  
  Peak memory usage:    635 Mb
  
  end of program sole
   
 Time(sole)  user:        0.0  user+sys:        0.0  wallclock:        0.1
  
  start of program post
  
  Writing input files for PBF
  Peak memory usage:    536 Mb
  
  end of program post
   
 Time(post)  user:        0.0  user+sys:        0.0  wallclock:        0.2

 Total cpu seconds     user:   16829.000   user+sys:   16970.000
  
 Total elapsed time:    18699 seconds

Job B3LYP-SPE-Toru-SiPh3-NTf-Type-I-E-1-chkp-scan-unrestrained.mol completed on tethys at Tue Nov 22 21:47:36 2016
