Job B3LYP-SPE-Toru-SiPh3-Type-I-E-3-chkp-unrestrained2 started on tethys at Wed Nov 23 14:16:14 2016
jobid: tethys-0-5835a4ad

  +--------------------------------------------------------------------+
  |  Jaguar version 8.4, release  16                                   |
  |                                                                    |
  |  Copyright Schrodinger, Inc.                                       |
  |  All Rights Reserved.                                              |
  |                                                                    |
  |  The following have contributed to Jaguar (listed alphabetically): |
  |  Mike Beachy, Art Bochevarov, Dale Braden, Yixiang Cao,            |
  |  Chris Cortis, Rich Friesner, Bill Goddard, Hod Greeley,           |
  |  Tom Hughes, Jean-Marc Langlois, Daniel Mainz, Rob Murphy,         |
  |  Dean Philipp, Tom Pollard, Murco Ringnalda.                       |
  |                                                                    |
  |  Use of this program should be acknowledged in publications as:    |
  |                                                                    |
  |  Jaguar, version 8.4, Schrodinger, Inc., New York, NY, 2013.       |
  |                                                                    |
  |  A. D. Bochevarov, E. Harder, T. F. Hughes, J. R. Greenwood,       |
  |  D. A. Braden, D. M. Philipp, D. Rinaldo, M. D. Halls,             |
  |  J. Zhang, R. A. Friesner, "Jaguar: A High-Performance Quantum     |
  |  Chemistry Software Program with Strengths in Life and Materials   |
  |  Sciences", Int. J. Quantum Chem., 2013, 113(18), 2110-2142.       |
  +--------------------------------------------------------------------+
  
  start of program pre
  
  Job name: B3LYP-SPE-Toru-SiPh3-Type-I-E-3-chkp-unrestrained2
  Executables used: /usr/local/shared/schrodinger/current/jaguar-v84016/bin/Linux-x86_64
  Temporary files : /home/ab2144/.schrodinger/tmp/B3LYP-SPE-Toru-SiPh3-Type-I-E-3-chkp-unrestrained2
  Maestro file (input):  B3LYP-SPE-Toru-SiPh3-Type-I-E-3-chkp-unrestrained2.mae
  Maestro file (output): B3LYP-SPE-Toru-SiPh3-Type-I-E-3-chkp-unrestrained2.01.mae
  
  
  basis set:             6-31g**         
  net molecular charge:    0
  multiplicity:            1
  
  keygrid settings 
    wispc.....   7.500E-01
    ldens.....   0
    denspc....   7.500E-01
  
   grid     daf set  nls  grid set  Q type
  ------    -------  ---  --------  ------
  coarse       1      1       1        1
  medium       2      2       2        1
  fine         3      2       3        0
  ultrafine    4      2       4        1
  charge       0      1      -1        1
  gradient     5      2       4        1
  density      0      1       0        0
  DFT-fine     0      1     -13        0
  DFT-med.     0      1     -13        0
  DFT-grad     0      1     -13        0
  DFT-der2     0      1       0        0
  DFT-cphf     0      1       0        0
  LMP2-enrg    4      2       4        1
  LMP2-grad    5      2       2        1
  DFT-cphf2    0      1       0        0
  PBF-dens     0      1       0        0
  plotting     0      1       0        0
  
  idftgrdm  100
  ndftgrdm   50    0    0
  idftgrdf  111
  ndftgrdf   85    0    0
  idftgrdg  111
  ndftgrdg   80    3    0
  idftgrdu  433
  ndftgrdu  105    0    0
  idftgrdd  433
  ndftgrdd  105    0    0
  idftgrdc  433
  ndftgrdc   26    0    0
  idftgrdp  433
  ndftgrdp   18    0    0
  
  number of basis functions....         1571
  
 Input geometry:
                                   angstroms
  atom               x                 y                 z
  C1           -0.3988000000     -5.3605000000     -0.7242000000 
  C2           -1.3105000000     -4.1906000000     -0.5811000000 
  C3           -0.8596000000     -6.5250000000     -1.1950000000 
  C4           -2.5953000000     -4.3127000000     -0.9786000000 
  C5           -0.8246000000     -2.8787000000     -0.0540000000 
  C6           -3.0972000000     -5.6085000000     -1.4929000000 
  C7           -3.5023000000     -3.1537000000     -0.9137000000 
  C8           -2.2742000000     -6.6575000000     -1.5899000000 
  C9           -1.6221000000     -1.7853000000     -0.1334000000 
  C10           0.5497000000     -2.7536000000      0.4918000000 
  C11          -3.0568000000     -1.9537000000     -0.5122000000 
  O12          -1.1793000000     -0.5638000000      0.3227000000 
  Si13         -4.2633000000     -0.5318000000     -0.4090000000 
  C14           0.9860000000     -3.4600000000      1.5592000000 
  C15           1.4832000000     -1.8486000000     -0.2207000000 
  C16           2.4224000000     -3.4037000000      1.9348000000 
  C17           0.0917000000     -4.3019000000      2.3922000000 
  C18           3.2811000000     -2.6697000000      1.2140000000 
  C19           2.8819000000     -4.1948000000      3.0930000000 
  C20           2.8015000000     -1.8722000000      0.0629000000 
  Si21          4.0437000000     -0.8927000000     -0.9241000000 
  O22           0.9756000000     -1.0134000000     -1.1816000000 
  C23           0.5809000000     -4.9928000000      3.4288000000 
  C24           2.0152000000     -4.9406000000      3.7873000000 
  P25           0.0382000000      0.1795000000     -0.5437000000 
  O26          -0.5215000000      0.9497000000     -1.7106000000 
  O27           0.8395000000      0.9389000000      0.4955000000 
  C28          -4.0327000000      0.5806000000     -1.8874000000 
  C29          -6.0054000000     -1.2024000000     -0.4243000000 
  C30          -4.0056000000      0.3279000000      1.2252000000 
  C31           4.2722000000      0.7924000000     -0.1651000000 
  C32           5.6651000000     -1.8112000000     -0.9155000000 
  C33           3.4297000000     -0.7483000000     -2.6788000000 
  C34          -4.7988000000      1.6734000000     -2.0510000000 
  C35          -3.0684000000      0.2076000000     -2.9511000000 
  C36          -6.4530000000     -1.9472000000      0.6016000000 
  C37          -6.8991000000     -0.9596000000     -1.5854000000 
  C38          -4.0434000000      1.6656000000      1.3385000000 
  C39          -3.7808000000     -0.4939000000      2.4403000000 
  C40           3.8174000000      1.0652000000      1.0696000000 
  C41           4.9988000000      1.8418000000     -0.9212000000 
  C42           6.8269000000     -1.1770000000     -0.6797000000 
  C43           5.6722000000     -3.2790000000     -1.1350000000 
  C44           3.4471000000     -1.8093000000     -3.5033000000 
  C45           2.8283000000      0.5219000000     -3.1499000000 
  C46          -4.6429000000      2.5217000000     -3.2504000000 
  C47          -3.7540000000      2.1918000000     -4.1940000000 
  C48          -2.9312000000      0.9762000000     -4.0385000000 
  C49          -7.8266000000     -2.4912000000      0.5874000000 
  C50          -8.6307000000     -2.2553000000     -0.4550000000 
  C51          -8.1423000000     -1.4565000000     -1.5960000000 
  C52          -3.8814000000      2.3081000000      2.6598000000 
  C53          -3.6885000000      1.5603000000      3.7513000000 
  C54          -3.6368000000      0.0903000000      3.6360000000 
  C55           4.0197000000      2.4066000000      1.6560000000 
  C56           4.6619000000      3.3534000000      0.9630000000 
  C57           5.1805000000      3.0553000000     -0.3865000000 
  C58           8.0983000000     -1.9304000000     -0.6688000000 
  C59           8.0981000000     -3.2512000000     -0.8815000000 
  C60           6.8250000000     -3.9590000000     -1.1206000000 
  C61           2.9126000000     -1.6959000000     -4.8768000000 
  C62           2.3865000000     -0.5404000000     -5.2991000000 
  C63           2.3348000000      0.6208000000     -4.3896000000 
  C64           1.5324000000      6.5342000000     -1.9023000000 
  C65           0.8574000000      6.0715000000     -0.7740000000 
  C66           1.0007000000      4.7396000000     -0.3525000000 
  C67           1.8106000000      3.8648000000     -1.0958000000 
  C68           2.4816000000      4.3338000000     -2.2213000000 
  C69           2.3480000000      5.6653000000     -2.6256000000 
  C70           0.3162000000      4.3283000000      0.8878000000 
  N71           0.7863000000      3.2674000000      1.6202000000 
  S72           0.4319000000      3.2870000000      3.2951000000 
  O73           1.4942000000      4.0190000000      3.9920000000 
  O74          -0.9613000000      3.7207000000      3.4651000000 
  C75           0.6210000000      1.5286000000      3.6884000000 
  C76           1.7350000000      1.1212000000      4.4173000000 
  C77           1.8347000000     -0.2434000000      4.6880000000 
  C78           0.8403000000     -1.0961000000      4.2143000000 
  C79          -0.2236000000     -0.5606000000      3.4839000000 
  N80          -0.3430000000      0.7456000000      3.2330000000 
  N81          -1.4915000000      3.3064000000     -1.0389000000 
  C82          -1.9508000000      4.2426000000     -1.8655000000 
  C83          -2.4699000000      5.3299000000     -1.1213000000 
  C84          -2.2953000000      5.0095000000      0.2127000000 
  C85          -1.5867000000      3.7680000000      0.2781000000 
  H86           0.6483000000     -5.2829000000     -0.4648000000 
  H87          -0.1925000000     -7.3713000000     -1.2973000000 
  H88          -4.1326000000     -5.7105000000     -1.7936000000 
  H89          -4.5335000000     -3.2913000000     -1.2115000000 
  H90          -2.6412000000     -7.6034000000     -1.9670000000 
  H91          -0.9697000000     -4.3556000000      2.1874000000 
  H92           4.3294000000     -2.6402000000      1.4857000000 
  H93           3.9245000000     -4.1779000000      3.3873000000 
  H94          -0.0872000000     -5.5974000000      4.0284000000 
  H95           2.3659000000     -5.5154000000      4.6347000000 
  H96           0.8619000000      2.2930000000      1.1584000000 
  H97          -5.5598000000      1.9325000000     -1.3264000000 
  H98          -2.4676000000     -0.6874000000     -2.8597000000 
  H99          -5.8197000000     -2.1685000000      1.4483000000 
  H100         -6.5534000000     -0.3986000000     -2.4418000000 
  H101         -4.1889000000      2.3000000000      0.4798000000 
  H102         -3.7138000000     -1.5717000000      2.3664000000 
  H103          3.3006000000      0.3159000000      1.6545000000 
  H104          5.3828000000      1.6312000000     -1.9114000000 
  H105          6.8598000000     -0.1131000000     -0.4974000000 
  H106          4.7433000000     -3.8138000000     -1.2851000000 
  H107          3.8412000000     -2.7612000000     -3.1810000000 
  H108          2.7485000000      1.3630000000     -2.4820000000 
  H109         -5.2514000000      3.4095000000     -3.3640000000 
  H110         -3.6378000000      2.8124000000     -5.0729000000 
  H111         -2.2213000000      0.7050000000     -4.8091000000 
  H112         -8.1795000000     -3.0824000000      1.4226000000 
  H113         -9.6367000000     -2.6544000000     -0.4675000000 
  H114         -8.7897000000     -1.2822000000     -2.4458000000 
  H115         -3.9131000000      3.3871000000      2.7396000000 
  H116         -3.5624000000      2.0304000000      4.7179000000 
  H117         -3.4652000000     -0.5127000000      4.5181000000 
  H118          3.6454000000      2.6229000000      2.6467000000 
  H119          4.8047000000      4.3374000000      1.3901000000 
  H120          5.7044000000      3.8214000000     -0.9431000000 
  H121          9.0299000000     -1.4099000000     -0.4880000000 
  H122          9.0287000000     -3.8038000000     -0.8727000000 
  H123          6.8258000000     -5.0303000000     -1.2745000000 
  H124          2.9440000000     -2.5519000000     -5.5383000000 
  H125          1.9906000000     -0.4571000000     -6.3029000000 
  H126          1.8839000000      1.5469000000     -4.7223000000 
  H127          1.4258000000      7.5703000000     -2.2088000000 
  H128          0.2303000000      6.7489000000     -0.2026000000 
  H129          1.9110000000      2.8320000000     -0.7804000000 
  H130          3.1220000000      3.6666000000     -2.7881000000 
  H131          2.8815000000      6.0217000000     -3.5018000000 
  H132         -0.0097000000      5.1615000000      1.5031000000 
  H133          2.4714000000      1.8417000000      4.7504000000 
  H134          2.6753000000     -0.6311000000      5.2550000000 
  H135          0.8829000000     -2.1616000000      4.4101000000 
  H136         -0.9981000000     -1.1992000000      3.0715000000 
  H137         -1.0848000000      2.3631000000     -1.3308000000 
  H138         -1.8914000000      4.1162000000     -2.9381000000 
  H139         -2.9089000000      6.2249000000     -1.5384000000 
  H140         -2.5803000000      5.5928000000      1.0779000000 
  H141         -1.6660000000      3.0474000000      1.0780000000 
   
  principal moments of inertia:
        amu*angstrom^2:    17200.78582    21664.00496    26400.58932
                g*cm^2: 2.85625733E-36 3.59739221E-36 4.38392045E-36
   
  rotational constants:
               cm^(-1):      0.00098005      0.00077814      0.00063853
                   GHz:      0.02938116      0.02332805      0.01914272
   
  Molecular weight:    1177.32 amu
   
  Stoichiometry: Si2C72PN3H56SO6
  Molecular Point Group: C1      
  Point Group used: C1
  
  nuclear repulsion energy.......   17611.857625080 hartrees
 
 Non-default options chosen:
   SCF calculation type: DFT(b3lyp)                  
   DFT=Becke_3_Parameter/HF+Slater+Becke88+VWN+LYP (B3LYP)
   Solvation energy will be computed using PBF
     -solute cavity energy will not be included
     -surface area terms will not be included
   Highest accuracy cutoffs used in SCF
   Solvent: other                                                           
   Internal dielectric constant:    1.000
   Continuum dielectric constant:   2.380
   Solvent probe molecule radius:   2.760
  
 Temporary integer options set:
     73=  2
  
  atom       vdw   vdw2    cov     mass  grid  daf  charge   basis
  C1        1.949  1.900  0.770   12.000    Y    Y      Y    6-31g**
  C2        1.949  1.900  0.770   12.000    Y    Y      Y    6-31g**
  C3        1.949  1.900  0.770   12.000    Y    Y      Y    6-31g**
  C4        1.949  1.900  0.770   12.000    Y    Y      Y    6-31g**
  C5        1.949  1.900  0.770   12.000    Y    Y      Y    6-31g**
  C6        1.949  1.900  0.770   12.000    Y    Y      Y    6-31g**
  C7        1.949  1.900  0.770   12.000    Y    Y      Y    6-31g**
  C8        1.949  1.900  0.770   12.000    Y    Y      Y    6-31g**
  C9        1.949  1.900  0.770   12.000    Y    Y      Y    6-31g**
  C10       1.949  1.900  0.770   12.000    Y    Y      Y    6-31g**
  C11       1.949  1.900  0.770   12.000    Y    Y      Y    6-31g**
  O12       1.702  1.600  0.730   15.995    Y    Y      Y    6-31g**
  Si13      2.217  2.147  1.110   27.977    Y    Y      Y    6-31g**
  C14       1.949  1.900  0.770   12.000    Y    Y      Y    6-31g**
  C15       1.949  1.900  0.770   12.000    Y    Y      Y    6-31g**
  C16       1.949  1.900  0.770   12.000    Y    Y      Y    6-31g**
  C17       1.949  1.900  0.770   12.000    Y    Y      Y    6-31g**
  C18       1.949  1.900  0.770   12.000    Y    Y      Y    6-31g**
  C19       1.949  1.900  0.770   12.000    Y    Y      Y    6-31g**
  C20       1.949  1.900  0.770   12.000    Y    Y      Y    6-31g**
  Si21      2.217  2.147  1.110   27.977    Y    Y      Y    6-31g**
  O22       1.702  1.600  0.730   15.995    Y    Y      Y    6-31g**
  C23       1.949  1.900  0.770   12.000    Y    Y      Y    6-31g**
  C24       1.949  1.900  0.770   12.000    Y    Y      Y    6-31g**
  P25       2.147  2.074  1.060   30.974    Y    Y      Y    6-31g**
  O26       1.702  1.600  0.730   15.995    Y    Y      Y    6-31g**
  O27       1.702  1.600  0.730   15.995    Y    Y      Y    6-31g**
  C28       1.949  1.900  0.770   12.000    Y    Y      Y    6-31g**
  C29       1.949  1.900  0.770   12.000    Y    Y      Y    6-31g**
  C30       1.949  1.900  0.770   12.000    Y    Y      Y    6-31g**
  C31       1.949  1.900  0.770   12.000    Y    Y      Y    6-31g**
  C32       1.949  1.900  0.770   12.000    Y    Y      Y    6-31g**
  C33       1.949  1.900  0.770   12.000    Y    Y      Y    6-31g**
  C34       1.949  1.900  0.770   12.000    Y    Y      Y    6-31g**
  C35       1.949  1.900  0.770   12.000    Y    Y      Y    6-31g**
  C36       1.949  1.900  0.770   12.000    Y    Y      Y    6-31g**
  C37       1.949  1.900  0.770   12.000    Y    Y      Y    6-31g**
  C38       1.949  1.900  0.770   12.000    Y    Y      Y    6-31g**
  C39       1.949  1.900  0.770   12.000    Y    Y      Y    6-31g**
  C40       1.949  1.900  0.770   12.000    Y    Y      Y    6-31g**
  C41       1.949  1.900  0.770   12.000    Y    Y      Y    6-31g**
  C42       1.949  1.900  0.770   12.000    Y    Y      Y    6-31g**
  C43       1.949  1.900  0.770   12.000    Y    Y      Y    6-31g**
  C44       1.949  1.900  0.770   12.000    Y    Y      Y    6-31g**
  C45       1.949  1.900  0.770   12.000    Y    Y      Y    6-31g**
  C46       1.949  1.900  0.770   12.000    Y    Y      Y    6-31g**
  C47       1.949  1.900  0.770   12.000    Y    Y      Y    6-31g**
  C48       1.949  1.900  0.770   12.000    Y    Y      Y    6-31g**
  C49       1.949  1.900  0.770   12.000    Y    Y      Y    6-31g**
  C50       1.949  1.900  0.770   12.000    Y    Y      Y    6-31g**
  C51       1.949  1.900  0.770   12.000    Y    Y      Y    6-31g**
  C52       1.949  1.900  0.770   12.000    Y    Y      Y    6-31g**
  C53       1.949  1.900  0.770   12.000    Y    Y      Y    6-31g**
  C54       1.949  1.900  0.770   12.000    Y    Y      Y    6-31g**
  C55       1.949  1.900  0.770   12.000    Y    Y      Y    6-31g**
  C56       1.949  1.900  0.770   12.000    Y    Y      Y    6-31g**
  C57       1.949  1.900  0.770   12.000    Y    Y      Y    6-31g**
  C58       1.949  1.900  0.770   12.000    Y    Y      Y    6-31g**
  C59       1.949  1.900  0.770   12.000    Y    Y      Y    6-31g**
  C60       1.949  1.900  0.770   12.000    Y    Y      Y    6-31g**
  C61       1.949  1.900  0.770   12.000    Y    Y      Y    6-31g**
  C62       1.949  1.900  0.770   12.000    Y    Y      Y    6-31g**
  C63       1.949  1.900  0.770   12.000    Y    Y      Y    6-31g**
  C64       1.949  1.900  0.770   12.000    Y    Y      Y    6-31g**
  C65       1.949  1.900  0.770   12.000    Y    Y      Y    6-31g**
  C66       1.949  1.900  0.770   12.000    Y    Y      Y    6-31g**
  C67       1.949  1.900  0.770   12.000    Y    Y      Y    6-31g**
  C68       1.949  1.900  0.770   12.000    Y    Y      Y    6-31g**
  C69       1.949  1.900  0.770   12.000    Y    Y      Y    6-31g**
  C70       1.949  1.900  0.770   12.000    Y    Y      Y    6-31g**
  N71       1.831  1.600  0.750   14.003    Y    Y      Y    6-31g**
  S72       2.070  1.900  1.020   31.972    Y    Y      Y    6-31g**
  O73       1.702  1.600  0.730   15.995    Y    Y      Y    6-31g**
  O74       1.702  1.600  0.730   15.995    Y    Y      Y    6-31g**
  C75       1.949  1.900  0.770   12.000    Y    Y      Y    6-31g**
  C76       1.949  1.900  0.770   12.000    Y    Y      Y    6-31g**
  C77       1.949  1.900  0.770   12.000    Y    Y      Y    6-31g**
  C78       1.949  1.900  0.770   12.000    Y    Y      Y    6-31g**
  C79       1.949  1.900  0.770   12.000    Y    Y      Y    6-31g**
  N80       1.831  1.600  0.750   14.003    Y    Y      Y    6-31g**
  N81       1.831  1.600  0.750   14.003    Y    Y      Y    6-31g**
  C82       1.949  1.900  0.770   12.000    Y    Y      Y    6-31g**
  C83       1.949  1.900  0.770   12.000    Y    Y      Y    6-31g**
  C84       1.949  1.900  0.770   12.000    Y    Y      Y    6-31g**
  C85       1.949  1.900  0.770   12.000    Y    Y      Y    6-31g**
  H86       1.597  1.150  0.320    1.008    Y    Y      Y    6-31g**
  H87       1.597  1.150  0.320    1.008    Y    Y      Y    6-31g**
  H88       1.597  1.150  0.320    1.008    Y    Y      Y    6-31g**
  H89       1.597  1.150  0.320    1.008    Y    Y      Y    6-31g**
  H90       1.597  1.150  0.320    1.008    Y    Y      Y    6-31g**
  H91       1.597  1.150  0.320    1.008    Y    Y      Y    6-31g**
  H92       1.597  1.150  0.320    1.008    Y    Y      Y    6-31g**
  H93       1.597  1.150  0.320    1.008    Y    Y      Y    6-31g**
  H94       1.597  1.150  0.320    1.008    Y    Y      Y    6-31g**
  H95       1.597  1.150  0.320    1.008    Y    Y      Y    6-31g**
  H96       1.597  1.150  0.320    1.008    Y    Y      Y    6-31g**
  H97       1.597  1.150  0.320    1.008    Y    Y      Y    6-31g**
  H98       1.597  1.150  0.320    1.008    Y    Y      Y    6-31g**
  H99       1.597  1.150  0.320    1.008    Y    Y      Y    6-31g**
  H100      1.597  1.150  0.320    1.008    Y    Y      Y    6-31g**
  H101      1.597  1.150  0.320    1.008    Y    Y      Y    6-31g**
  H102      1.597  1.150  0.320    1.008    Y    Y      Y    6-31g**
  H103      1.597  1.150  0.320    1.008    Y    Y      Y    6-31g**
  H104      1.597  1.150  0.320    1.008    Y    Y      Y    6-31g**
  H105      1.597  1.150  0.320    1.008    Y    Y      Y    6-31g**
  H106      1.597  1.150  0.320    1.008    Y    Y      Y    6-31g**
  H107      1.597  1.150  0.320    1.008    Y    Y      Y    6-31g**
  H108      1.597  1.150  0.320    1.008    Y    Y      Y    6-31g**
  H109      1.597  1.150  0.320    1.008    Y    Y      Y    6-31g**
  H110      1.597  1.150  0.320    1.008    Y    Y      Y    6-31g**
  H111      1.597  1.150  0.320    1.008    Y    Y      Y    6-31g**
  H112      1.597  1.150  0.320    1.008    Y    Y      Y    6-31g**
  H113      1.597  1.150  0.320    1.008    Y    Y      Y    6-31g**
  H114      1.597  1.150  0.320    1.008    Y    Y      Y    6-31g**
  H115      1.597  1.150  0.320    1.008    Y    Y      Y    6-31g**
  H116      1.597  1.150  0.320    1.008    Y    Y      Y    6-31g**
  H117      1.597  1.150  0.320    1.008    Y    Y      Y    6-31g**
  H118      1.597  1.150  0.320    1.008    Y    Y      Y    6-31g**
  H119      1.597  1.150  0.320    1.008    Y    Y      Y    6-31g**
  H120      1.597  1.150  0.320    1.008    Y    Y      Y    6-31g**
  H121      1.597  1.150  0.320    1.008    Y    Y      Y    6-31g**
  H122      1.597  1.150  0.320    1.008    Y    Y      Y    6-31g**
  H123      1.597  1.150  0.320    1.008    Y    Y      Y    6-31g**
  H124      1.597  1.150  0.320    1.008    Y    Y      Y    6-31g**
  H125      1.597  1.150  0.320    1.008    Y    Y      Y    6-31g**
  H126      1.597  1.150  0.320    1.008    Y    Y      Y    6-31g**
  H127      1.597  1.150  0.320    1.008    Y    Y      Y    6-31g**
  H128      1.597  1.150  0.320    1.008    Y    Y      Y    6-31g**
  H129      1.597  1.150  0.320    1.008    Y    Y      Y    6-31g**
  H130      1.597  1.150  0.320    1.008    Y    Y      Y    6-31g**
  H131      1.597  1.150  0.320    1.008    Y    Y      Y    6-31g**
  H132      1.597  1.150  0.320    1.008    Y    Y      Y    6-31g**
  H133      1.597  1.150  0.320    1.008    Y    Y      Y    6-31g**
  H134      1.597  1.150  0.320    1.008    Y    Y      Y    6-31g**
  H135      1.597  1.150  0.320    1.008    Y    Y      Y    6-31g**
  H136      1.597  1.150  0.320    1.008    Y    Y      Y    6-31g**
  H137      1.597  1.150  0.320    1.008    Y    Y      Y    6-31g**
  H138      1.597  1.150  0.320    1.008    Y    Y      Y    6-31g**
  H139      1.597  1.150  0.320    1.008    Y    Y      Y    6-31g**
  H140      1.597  1.150  0.320    1.008    Y    Y      Y    6-31g**
  H141      1.597  1.150  0.320    1.008    Y    Y      Y    6-31g**
  
  Peak memory usage:    526 Mb
  
  end of program pre
   
 Time(pre)  user:        0.0  user+sys:        0.0  wallclock:        1.9
  
  start of program onee
  
  smallest eigenvalue of S:    2.220E-04
  number of canonical orbitals.....         1564
  Peak memory usage:    700 Mb
  
  end of program onee
   
 Time(onee)  user:       26.0  user+sys:       27.0  wallclock:       86.8
  
  start of program hfig
  
  initial wavefunction generated automatically from atomic wavefunctions
 
  Irreducible     Total no   No of occupied orbitals 
  representation  orbitals   Shell_1  Shell_2    ...
  No Symm         1564        308
  ------------------------
  Orbital occupation/shell    1.000
 
  Peak memory usage:    639 Mb
  
  end of program hfig
   
 Time(hfig)  user:       36.0  user+sys:       36.0  wallclock:      190.8
  
  start of program probe
  
  Peak memory usage:    633 Mb
  
  end of program probe
   
 Time(probe)  user:       28.0  user+sys:       28.0  wallclock:      142.5
  
  start of program grid
  
  
   grid     grid set  grid #  grid sym
  ------    --------  ------  --------
  coarse        0        0        1
  medium        2        1        1
  fine          0        0        1
  ultrafine     4        2        1
  charge       -1        3        1
  gradient      4        2        1
  density       0        0        1
  DFT-fine    -13        4        1
  DFT-med.    -13        4        1
  DFT-grad    -13        4        1
  DFT-der2      0        0        1
  DFT-cphf      0        0        1
  LMP2-enrg     4        2        1
  LMP2-grad     2        1        1
  DFT-cphf2     0        0        1
  PBF-dens      0        0        1
  plotting      0        0        1
  
   
  number of gridpoints: 
     atom        C1       C2       C3       C4       C5       C6       C7
  grid # 1       97      101       94      102      100       96       92
  grid # 2      338      360      336      367      357      336      335
  grid # 3       34       29       43       47       16       46       21
  grid # 4    14816    14816    14816    14816    14816    14816    14816
   
  number of gridpoints: 
     atom        C8       C9      C10      C11      O12     Si13      C14
  grid # 1       94       97      100      101      112      476      101
  grid # 2      336      356      352      356      439      476      353
  grid # 3       49       15        9        7       33       10        7
  grid # 4    14816    14816    14816    14816    23902    22912    14816
   
  number of gridpoints: 
     atom       C15      C16      C17      C18      C19      C20     Si21
  grid # 1       97      101       96       93       97      102      472
  grid # 2      355      362      333      332      336      359      472
  grid # 3       25       23       13       17       28       11       11
  grid # 4    14816    14816    14816    14816    14816    14816    22912
   
  number of gridpoints: 
     atom       O22      C23      C24      P25      O26      O27      C28
  grid # 1      112       94       93      444      117      114      100
  grid # 2      442      334      335      444      444      431      357
  grid # 3       64       21       28        9       62       29        9
  grid # 4    23902    14816    14816    23204    23902    23902    14816
   
  number of gridpoints: 
     atom       C29      C30      C31      C32      C33      C34      C35
  grid # 1      101      101       99      101      100       92       96
  grid # 2      356      359      356      359      361      333      335
  grid # 3       20       17        8       17       16        9       19
  grid # 4    14816    14816    14816    14816    14816    14816    14816
   
  number of gridpoints: 
     atom       C36      C37      C38      C39      C40      C41      C42
  grid # 1       93       96       93       95       92       94       93
  grid # 2      336      340      332      332      333      330      338
  grid # 3       28       28       29       18       18        9       38
  grid # 4    14816    14816    14816    14816    14816    14816    14816
   
  number of gridpoints: 
     atom       C43      C44      C45      C46      C47      C48      C49
  grid # 1       95       93       94       92       93       93       94
  grid # 2      334      336      332      332      331      334      336
  grid # 3       21       34       19       19       23       24       41
  grid # 4    14816    14816    14816    14816    14816    14816    14816
   
  number of gridpoints: 
     atom       C50      C51      C52      C53      C54      C55      C56
  grid # 1       94       94       93       93       94       93       93
  grid # 2      336      336      331      334      333      331      333
  grid # 3       45       43       29       29       29       27       27
  grid # 4    14816    14816    14816    14816    14816    14816    14816
   
  number of gridpoints: 
     atom       C57      C58      C59      C60      C61      C62      C63
  grid # 1       92       94       94       93       94       94       94
  grid # 2      332      336      336      336      336      337      336
  grid # 3       18       46       46       41       42       42       37
  grid # 4    14816    14816    14816    14816    14816    14816    14816
   
  number of gridpoints: 
     atom       C64      C65      C66      C67      C68      C69      C70
  grid # 1       96       96      100       95       95       95       91
  grid # 2      332      334      362      332      333      332      321
  grid # 3       37       29       21       20       29       38        6
  grid # 4    14816    14816    14816    14816    14816    14816    14816
   
  number of gridpoints: 
     atom       N71      S72      O73      O74      C75      C76      C77
  grid # 1       98      443      121      119       98       96       96
  grid # 2      350      443      499      483      357      328      329
  grid # 3       14       11      245      161       27       29       33
  grid # 4    15000    32664    23902    23902    14816    14816    14816
   
  number of gridpoints: 
     atom       C78      C79      N80      N81      C82      C83      C84
  grid # 1       96       95      109       97       94       93       93
  grid # 2      329      336      410      346      328      328      326
  grid # 3       36       27       38       11       11       17       10
  grid # 4    14816    14816    15000    15000    14816    14816    14816
   
  number of gridpoints: 
     atom       C85      H86      H87      H88      H89      H90      H91
  grid # 1       92      112      118      118      110      118      113
  grid # 2      322      434      452      446      428      453      433
  grid # 3        6      234      420      361      196      424      225
  grid # 4    14816    16416    16416    16416    16416    16416    16416
   
  number of gridpoints: 
     atom       H92      H93      H94      H95      H96      H97      H98
  grid # 1      114      117      117      117       98      110      112
  grid # 2      428      442      448      449      380      429      427
  grid # 3      196      342      399      407       35      215      198
  grid # 4    16416    16416    16416    16416    16416    16416    16416
   
  number of gridpoints: 
     atom       H99     H100     H101     H102     H103     H104     H105
  grid # 1      111      112      107      108      110      112      112
  grid # 2      430      433      417      421      419      431      432
  grid # 3      210      235      136      160      144      230      228
  grid # 4    16416    16416    16416    16416    16416    16416    16416
   
  number of gridpoints: 
     atom      H106     H107     H108     H109     H110     H111     H112
  grid # 1      110      111      104      117      117      116      118
  grid # 2      426      431      403      448      450      448      452
  grid # 3      195      215       50      363      372      343      417
  grid # 4    16416    16416    16416    16416    16416    16416    16416
   
  number of gridpoints: 
     atom      H113     H114     H115     H116     H117     H118     H119
  grid # 1      118      118      112      117      116      111      117
  grid # 2      453      453      438      449      448      425      451
  grid # 3      425      423      271      371      356      164      383
  grid # 4    16416    16416    16416    16416    16416    16416    16416
   
  number of gridpoints: 
     atom      H120     H121     H122     H123     H124     H125     H126
  grid # 1      117      118      118      118      118      118      116
  grid # 2      447      453      453      452      452      451      447
  grid # 3      357      419      425      418      417      403      315
  grid # 4    16416    16416    16416    16416    16416    16416    16416
   
  number of gridpoints: 
     atom      H127     H128     H129     H130     H131     H132     H133
  grid # 1      118      112      103      109      118      107      112
  grid # 2      450      433      404      423      449      416      435
  grid # 3      410      262       61      173      407      149      251
  grid # 4    16416    16416    16416    16416    16416    16416    16416
   
  number of gridpoints: 
     atom      H134     H135     H136     H137     H138     H139     H140
  grid # 1      117      111      108      100      112      116      112
  grid # 2      451      429      419      400      441      458      448
  grid # 3      388      213      132       92      262      415      313
  grid # 4    16416    16416    16416    16416    16416    16416    16416
   
  number of gridpoints: 
     atom      H141    total
  grid # 1      103    16041
  grid # 2      410    54539
  grid # 3       64    18217
  grid # 4    16416  2276152
   
  Peak memory usage:    666 Mb
  
  end of program grid
   
 Time(grid)  user:      368.0  user+sys:      371.0  wallclock:     1895.9
  
  start of program rwr
  
  dpptrf failed in rinv with info = 122
  switching to SVD for RwR matrix  80 for grid  2
  Peak memory usage:    648 Mb
  
  end of program rwr
   
 Time(rwr)  user:       69.0  user+sys:       75.0  wallclock:      382.6
  
  start of program scf
  
 number of electrons..........        616
 number of alpha electrons....        308
 number of beta electrons.....        308
 number of orbitals, total....       1564
 number of doubly-occ'd orbs..        308
 number of open shell orbs....          0
 number of occupied orbitals..        308
 number of virtual orbitals...       1256
 number of hamiltonians.......          1
 number of shells.............          1
 SCF type: DFT=Becke_3_Parameter/HF+Slater+Becke88+VWN+LYP (B3LYP)
  
       i  u  d  i  g                   
       t  p  i  c  r                                 RMS    maximum
       e  d  i  u  i                       energy  density   DIIS  
       r  t  s  t  d       total energy    change  change    error 
  
etot    1  N  N  1  U   -4700.96686616025           3.0E-03  1.1E-01
etot    2  N  Y  1  U   -4698.71661295944 -2.3E+00  4.4E-03  1.5E-01
etot    3  N  Y  1  U   -4676.09278139137 -2.3E+01  4.4E-03  3.5E-01
etot    4  N  Y  1  U   -4704.55817609443  2.8E+01  4.3E-03  8.3E-02
etot    5  N  Y  1  U   -4683.06229897470 -2.1E+01  4.0E-03  1.6E-01
etot    6  N  Y  1  U   -4711.06682158738  2.8E+01  9.3E-04  2.4E-02
etot    7  N  Y  1  U   -4711.07799606583  1.1E-02  5.2E-04  2.5E-02
etot    8  N  Y  1  U   -4711.48936088194  4.1E-01  1.5E-04  5.1E-03
etot    9  N  Y  1  U   -4711.51666224637  2.7E-02  7.4E-05  2.2E-03
etot   10  N  Y  1  U   -4711.52044724204  3.8E-03  3.8E-05  2.4E-03
etot   11  N  Y  1  U   -4711.52271281404  2.3E-03  1.7E-05  7.8E-04
etot   12  N  Y  1  U   -4711.52302104629  3.1E-04  9.6E-06  4.0E-04
etot   13  N  Y  1  U   -4711.52311395371  9.3E-05  4.1E-06  1.6E-04
etot   14  N  N  1  U   -4711.52313349725  2.0E-05  0.0E+00  0.0E+00
  
  
 Energy components, in hartrees:
   (A)  Nuclear repulsion............   17611.85762508009
   (E)  Total one-electron terms.....  -41565.49806467821
   (F)    Electron-nuclear...........  -46239.91090572375
   (H)    Kinetic....................    4674.41284104552
   (I)  Total two-electron terms.....   19242.11730610087
   (J)    Coulomb....................   19817.23185603605
   (K)    Exchange+Correlation.......    -575.11454993517
   (L)  Electronic energy............  -22323.38075857734  (E+I)
   (M)  -V/T.........................       2.00793902758  (-(A+F+I)/H)
   (N)  Total energy.................   -4711.52313349725  (A+L)
  
 SCFE: SCF energy: DFT(b3lyp)     -4711.52313349725 hartrees   iterations:  14
  
 
 HOMO energy:    -0.20805
 LUMO energy:    -0.08636
 
  Orbital energies (hartrees): 
   -89.11235   -77.21700   -66.11120   -66.10987   -19.18028   -19.17739
   -19.14699   -19.14554   -19.09649   -19.09455   -14.38068   -14.36737
   -14.34937   -10.28146   -10.25793   -10.25332   -10.25244   -10.24636
   -10.23262   -10.23025   -10.22227   -10.21928   -10.21308   -10.21146
   -10.21005   -10.20742   -10.20584   -10.20410   -10.20219   -10.20181
   -10.20130   -10.20116   -10.20062   -10.19914   -10.19658   -10.19653
   -10.19648   -10.19613   -10.19551   -10.19526   -10.19506   -10.19462
   -10.19100   -10.18863   -10.18842   -10.18776   -10.18713   -10.18701
   -10.18690   -10.18683   -10.18668   -10.18647   -10.18640   -10.18578
   -10.18539   -10.18502   -10.18461   -10.18460   -10.18368   -10.18256
   -10.18219   -10.18177   -10.18162   -10.18019   -10.17987   -10.17932
   -10.17896   -10.17854   -10.17755   -10.17744   -10.17739   -10.17736
   -10.17660   -10.17580   -10.17510   -10.17472   -10.17465   -10.17456
   -10.17254   -10.17033   -10.16955   -10.16891   -10.16553   -10.16497
   -10.16119    -8.13878    -6.66120    -6.10380    -6.10261    -6.10172
    -5.25774    -5.25644    -4.82617    -4.82468    -4.82272    -3.61685
    -3.61630    -3.61604    -3.61541    -3.61504    -3.61485    -1.11204
    -1.08783    -1.04481    -1.00076    -0.99230    -0.97138    -0.96397
    -0.94407    -0.92523    -0.87540    -0.86413    -0.86162    -0.83932
    -0.83927    -0.83586    -0.83413    -0.83037    -0.82796    -0.81948
    -0.81893    -0.80965    -0.79519    -0.79172    -0.79058    -0.77499
    -0.75693    -0.75408    -0.74590    -0.74548    -0.74096    -0.73929
    -0.73817    -0.73621    -0.73506    -0.73380    -0.73296    -0.73251
    -0.72986    -0.72941    -0.72837    -0.72616    -0.72451    -0.72424
    -0.70764    -0.70631    -0.66042    -0.64694    -0.64670    -0.62594
    -0.62201    -0.61680    -0.61176    -0.60705    -0.60507    -0.59858
    -0.59656    -0.59489    -0.59462    -0.59157    -0.59002    -0.58789
    -0.58736    -0.58578    -0.58400    -0.58255    -0.58031    -0.57894
    -0.57735    -0.57585    -0.57328    -0.56679    -0.56093    -0.56019
    -0.54053    -0.53094    -0.53037    -0.52492    -0.52074    -0.51691
    -0.50576    -0.50489    -0.50233    -0.50139    -0.49950    -0.49887
    -0.49696    -0.49652    -0.48694    -0.48078    -0.47382    -0.47100
    -0.46885    -0.46751    -0.46311    -0.45923    -0.45688    -0.45382
    -0.45318    -0.45115    -0.44723    -0.44618    -0.44540    -0.44306
    -0.44137    -0.44059    -0.44028    -0.43736    -0.43534    -0.43439
    -0.43379    -0.43170    -0.43079    -0.43047    -0.42915    -0.42702
    -0.42540    -0.42517    -0.42447    -0.42382    -0.42327    -0.41810
    -0.41693    -0.41628    -0.41586    -0.41512    -0.41270    -0.41072
    -0.41043    -0.40900    -0.40642    -0.40518    -0.40432    -0.40148
    -0.39403    -0.39212    -0.38647    -0.38533    -0.38323    -0.38170
    -0.37895    -0.37730    -0.37313    -0.37252    -0.36566    -0.36291
    -0.36163    -0.35828    -0.35530    -0.35425    -0.35385    -0.35111
    -0.34982    -0.34649    -0.34591    -0.34442    -0.34322    -0.33952
    -0.33843    -0.33655    -0.33477    -0.33344    -0.33095    -0.32919
    -0.32842    -0.32731    -0.32444    -0.32156    -0.31932    -0.31903
    -0.31695    -0.31428    -0.30688    -0.30487    -0.30441    -0.29869
    -0.29502    -0.29177    -0.28795    -0.28624    -0.28471    -0.28417
    -0.28332    -0.27754    -0.27619    -0.27286    -0.26891    -0.26807
    -0.25932    -0.25827    -0.25483    -0.24741    -0.24709    -0.24627
    -0.24585    -0.24407    -0.24250    -0.23920    -0.23826    -0.23654
    -0.23552    -0.23428    -0.23279    -0.23084    -0.22979    -0.22889
    -0.22102    -0.20805    -0.08636    -0.05119    -0.04631    -0.03115
    -0.02871    -0.01766    -0.01338    -0.01263    -0.01024    -0.00945
 
  Peak memory usage:    843 Mb
  
  end of program scf
   
 Time(scf)  user:     9888.0  user+sys:    10006.0  wallclock:    26026.4
  
  start of program ch
  
  gridpoints used for charge fit        15657
    out of a possible maximum of        18217
  
   Electrostatic potential fitting constrained to reproduce
     total charge:                yes
     dipole moment:               no 
     traceless quadrupole moment: no 
     traceless octapole moment:   no 
  
  Atomic charges from electrostatic potential: 
   
 Atom       C1           C2           C3           C4           C5      
 Charge   -0.07422     -0.02508     -0.17774      0.17827      0.05697
   
 Atom       C6           C7           C8           C9           C10     
 Charge   -0.20329     -0.36180     -0.09132     -0.00749     -0.17712
   
 Atom       C11          O12          Si13         C14          C15     
 Charge    0.20267     -0.31774     -0.24558      0.18174      0.20032
   
 Atom       C16          C17          C18          C19          C20     
 Charge    0.21733     -0.20869     -0.44831     -0.23134      0.04387
   
 Atom       Si21         O22          C23          C24          P25     
 Charge    0.10680     -0.28226     -0.14587     -0.09460      1.02177
   
 Atom       O26          O27          C28          C29          C30     
 Charge   -0.61475     -0.62834      0.23599      0.17266      0.05677
   
 Atom       C31          C32          C33          C34          C35     
 Charge    0.06509     -0.09491      0.02163     -0.09630     -0.17936
   
 Atom       C36          C37          C38          C39          C40     
 Charge   -0.15467     -0.16404     -0.07604     -0.12246     -0.16156
   
 Atom       C41          C42          C43          C44          C45     
 Charge   -0.06829     -0.00528     -0.06970     -0.10450     -0.10094
   
 Atom       C46          C47          C48          C49          C50     
 Charge   -0.17307     -0.11360     -0.13063     -0.12750     -0.12734
   
 Atom       C51          C52          C53          C54          C55     
 Charge   -0.11946     -0.17650     -0.05877     -0.13988     -0.11366
   
 Atom       C56          C57          C58          C59          C60     
 Charge   -0.12584     -0.12617     -0.18049     -0.08125     -0.15048
   
 Atom       C61          C62          C63          C64          C65     
 Charge   -0.15814     -0.10324     -0.10956     -0.11005     -0.17569
   
 Atom       C66          C67          C68          C69          C70     
 Charge    0.19472     -0.06865     -0.02420     -0.17488     -0.11761
   
 Atom       N71          S72          O73          O74          C75     
 Charge   -0.32345      0.67922     -0.43246     -0.43551      0.36534
   
 Atom       C76          C77          C78          C79          N80     
 Charge   -0.33368      0.08887     -0.26556      0.26327     -0.37638
   
 Atom       N81          C82          C83          C84          C85     
 Charge   -0.28561      0.04102     -0.27596     -0.12878      0.24355
   
 Atom       H86          H87          H88          H89          H90     
 Charge    0.09670      0.13294      0.12753      0.17405      0.11715
   
 Atom       H91          H92          H93          H94          H95     
 Charge    0.13252      0.20117      0.13870      0.13114      0.11426
   
 Atom       H96          H97          H98          H99          H100    
 Charge    0.37064      0.09825      0.13207      0.11057      0.09586
   
 Atom       H101         H102         H103         H104         H105    
 Charge    0.07480      0.12279      0.12727      0.08370      0.06013
   
 Atom       H106         H107         H108         H109         H110    
 Charge    0.11183      0.09387      0.08384      0.11699      0.11278
   
 Atom       H111         H112         H113         H114         H115    
 Charge    0.12744      0.11910      0.11907      0.11998      0.12776
   
 Atom       H116         H117         H118         H119         H120    
 Charge    0.11112      0.10431      0.10475      0.12210      0.10713
   
 Atom       H121         H122         H123         H124         H125    
 Charge    0.12719      0.11019      0.11474      0.12267      0.11042
   
 Atom       H126         H127         H128         H129         H130    
 Charge    0.09938      0.12614      0.11149     -0.00186      0.08887
   
 Atom       H131         H132         H133         H134         H135    
 Charge    0.13409      0.17724      0.17662      0.10124      0.12042
   
 Atom       H136         H137         H138         H139         H140    
 Charge    0.05976      0.37362      0.13997      0.17068      0.13629
   
 Atom       H141    
 Charge    0.01629
  
  sum of atomic charges:     0.000000
   
 RMS Error   8.95E-04 hartrees
 
  Peak memory usage:    584 Mb
  
  end of program ch
   
 Time(ch)  user:       18.0  user+sys:       19.0  wallclock:       38.6
  
  start of program post
  
  Writing input files for PBF
  Peak memory usage:    534 Mb
  
  end of program post
   
 Time(post)  user:        0.0  user+sys:        0.0  wallclock:        0.6

  start of program pbf

Pbf Version 4.00

Molecular surface area:      788.10299   [A2]
Reaction field energy:       -13.38352   [kT]
  Peak memory usage: 556 Mb

  end of program pbf

 Time(pbf)  user:        8.7  user+sys:        8.8  wallclock:       15.3
  
  start of program solv
  
   number of surface charges from PBF   12982
   sum of surface charges     -0.00024
   
  nuclear repulsion energy.......   17611.857625080 hartrees
  Peak memory usage:    694 Mb
  
  end of program solv
   
 Time(solv)  user:       36.0  user+sys:       36.0  wallclock:       82.8
  
  start of program scf
  
  
       i  u  d  i  g                   
       t  p  i  c  r                                 RMS    maximum
       e  d  i  u  i                       energy  density   DIIS  
       r  t  s  t  d       total energy    change  change    error 
  
etot    1  N  N  1  U   -4711.55191669636           5.7E-05  8.8E-04
etot    2  N  Y  1  U   -4711.55228314479  3.7E-04  2.2E-05  1.0E-03
etot    3  N  Y  1  U   -4711.55263150304  3.5E-04  8.2E-06  3.5E-04
etot    4  N  Y  1  U   -4711.55270942181  7.8E-05  3.8E-06  1.6E-04
etot    5  N  N  1  U   -4711.55272539435  1.6E-05  0.0E+00  0.0E+00
  
  
 Energy components, in hartrees:
   (A)  Total zero-electron terms....   17613.51052114790
   (B)    Nuclear-nuclear............   17611.85762508009
   (C)    Nuclear-solvent............       1.65289606781
   (E)  Total one-electron terms.....  -41568.24427266062
   (F)    Electron-nuclear...........  -46241.02711918728
   (G)    Electron-solvent...........      -1.68328827094
   (H)    Kinetic....................    4674.46613479759
   (I)  Total two-electron terms.....   19243.18102611837
   (J)    Coulomb....................   19818.31352872754
   (K)    Exchange+Correlation.......    -575.13250260916
   (L)  Electronic energy............  -22325.06324654225  (E+I)
   (N)  Total quantum mech. energy...   -4711.55272539435  (A+L)
   (O)  Gas phase energy.............   -4711.52313349725
   (P)  Solution phase energy........   -4711.53752929279  (Q+R+S)
   (Q)    Total solute energy........   -4711.52233319122  (N-C-G)
   (R)    Total solvent energy.......      -0.01519610156  (C/2+G/2)
   (S)    Solute cavity energy.......       0.00000000000
   (U)  Reorganization energy........       0.00080030603  (Q-O)
   (V)  Solvation energy.............      -0.01439579554  (P-O)
  
 SCFE:  Solution phase energy: DFT(b3lyp)      -4711.53752929279 hartrees
        SCF iterations:   5
  
 
 HOMO energy:    -0.20868
 LUMO energy:    -0.08535
 
  Orbital energies (hartrees): 
   -89.11792   -77.21837   -66.11306   -66.11176   -19.18114   -19.17811
   -19.15126   -19.15122   -19.09768   -19.09556   -14.37931   -14.37031
   -14.35005   -10.28136   -10.25943   -10.25436   -10.25378   -10.24416
   -10.23252   -10.22931   -10.22040   -10.21897   -10.21186   -10.21012
   -10.20738   -10.20712   -10.20546   -10.20305   -10.20282   -10.20083
   -10.20067   -10.19861   -10.19849   -10.19715   -10.19690   -10.19536
   -10.19532   -10.19501   -10.19492   -10.19442   -10.19408   -10.19317
   -10.19246   -10.18946   -10.18938   -10.18879   -10.18865   -10.18860
   -10.18830   -10.18791   -10.18762   -10.18728   -10.18719   -10.18709
   -10.18663   -10.18648   -10.18609   -10.18582   -10.18474   -10.18454
   -10.18365   -10.18307   -10.18270   -10.18226   -10.18166   -10.18063
   -10.18001   -10.17979   -10.17974   -10.17967   -10.17946   -10.17911
   -10.17870   -10.17791   -10.17721   -10.17705   -10.17681   -10.17580
   -10.17539   -10.17198   -10.17181   -10.16986   -10.16699   -10.16689
   -10.16396    -8.14425    -6.66253    -6.10922    -6.10819    -6.10716
    -5.25958    -5.25831    -4.82751    -4.82602    -4.82405    -3.61868
    -3.61815    -3.61788    -3.61726    -3.61692    -3.61674    -1.11772
    -1.08898    -1.04592    -1.00686    -0.99100    -0.97240    -0.96465
    -0.94592    -0.92649    -0.87593    -0.86254    -0.86244    -0.84136
    -0.84131    -0.83699    -0.83594    -0.83257    -0.83081    -0.81955
    -0.81835    -0.81035    -0.79523    -0.79117    -0.79006    -0.77392
    -0.75735    -0.75202    -0.74729    -0.74692    -0.74098    -0.74055
    -0.73936    -0.73736    -0.73590    -0.73477    -0.73425    -0.73355
    -0.73166    -0.73151    -0.72965    -0.72823    -0.72670    -0.72647
    -0.70809    -0.70705    -0.66018    -0.64727    -0.64654    -0.62607
    -0.62226    -0.61705    -0.61280    -0.60611    -0.60585    -0.59803
    -0.59746    -0.59616    -0.59365    -0.59299    -0.59111    -0.58934
    -0.58807    -0.58604    -0.58456    -0.58276    -0.58153    -0.58052
    -0.57870    -0.57630    -0.57526    -0.56711    -0.56094    -0.55933
    -0.54117    -0.53157    -0.52980    -0.52616    -0.52096    -0.51878
    -0.50646    -0.50568    -0.50299    -0.50208    -0.50040    -0.49960
    -0.49821    -0.49614    -0.48747    -0.48290    -0.47302    -0.47179
    -0.46882    -0.46813    -0.46376    -0.46153    -0.45675    -0.45497
    -0.45331    -0.45023    -0.44746    -0.44684    -0.44590    -0.44333
    -0.44204    -0.44168    -0.44083    -0.43837    -0.43643    -0.43515
    -0.43473    -0.43238    -0.43233    -0.42999    -0.42840    -0.42753
    -0.42660    -0.42651    -0.42519    -0.42398    -0.42379    -0.41784
    -0.41767    -0.41684    -0.41660    -0.41575    -0.41281    -0.41176
    -0.41060    -0.40980    -0.40700    -0.40377    -0.40294    -0.40216
    -0.39448    -0.39205    -0.38765    -0.38637    -0.38440    -0.38301
    -0.37991    -0.37847    -0.37308    -0.37159    -0.36667    -0.36285
    -0.36125    -0.35938    -0.35742    -0.35647    -0.35458    -0.35152
    -0.35131    -0.34838    -0.34689    -0.34545    -0.34514    -0.34093
    -0.34009    -0.33913    -0.33591    -0.33497    -0.33148    -0.33051
    -0.32941    -0.32864    -0.32651    -0.32582    -0.32134    -0.32025
    -0.31972    -0.31553    -0.30993    -0.30780    -0.30540    -0.29939
    -0.29632    -0.29301    -0.28876    -0.28745    -0.28662    -0.28586
    -0.28461    -0.27799    -0.27691    -0.27167    -0.27010    -0.26925
    -0.26044    -0.25748    -0.25426    -0.24958    -0.24931    -0.24881
    -0.24860    -0.24566    -0.24394    -0.24112    -0.23966    -0.23789
    -0.23739    -0.23631    -0.23519    -0.23345    -0.23238    -0.22930
    -0.22198    -0.20868    -0.08535    -0.05146    -0.04664    -0.03112
    -0.03000    -0.01838    -0.01493    -0.01275    -0.01184    -0.01086
 
  Peak memory usage:    839 Mb
  
  end of program scf
   
 Time(scf)  user:     2842.0  user+sys:     2876.0  wallclock:     7304.1
  
  start of program sole
  
    SCRF                   solvation energy
  iteration          Hartrees            kcal/mol
     0               0.0000000            0.0000
     1              -0.0143958           -9.0335
  
  solvation energy not yet converged... 
  
  Peak memory usage:    634 Mb
  
  end of program sole
   
 Time(sole)  user:        0.0  user+sys:        0.0  wallclock:        0.4
  
  start of program ch
  
  gridpoints used for charge fit        15657
    out of a possible maximum of        15657
  
   Electrostatic potential fitting constrained to reproduce
     total charge:                yes
     dipole moment:               no 
     traceless quadrupole moment: no 
     traceless octapole moment:   no 
  
  Atomic charges from electrostatic potential: 
   
 Atom       C1           C2           C3           C4           C5      
 Charge   -0.06972     -0.02749     -0.18915      0.18363      0.05236
   
 Atom       C6           C7           C8           C9           C10     
 Charge   -0.21298     -0.38468     -0.09627     -0.01717     -0.17875
   
 Atom       C11          O12          Si13         C14          C15     
 Charge    0.23094     -0.30673     -0.27547      0.18922      0.19135
   
 Atom       C16          C17          C18          C19          C20     
 Charge    0.21979     -0.21722     -0.46124     -0.23879      0.05822
   
 Atom       Si21         O22          C23          C24          P25     
 Charge    0.09459     -0.26759     -0.15038     -0.10055      0.99756
   
 Atom       O26          O27          C28          C29          C30     
 Charge   -0.60909     -0.62038      0.25326      0.17473      0.06375
   
 Atom       C31          C32          C33          C34          C35     
 Charge    0.07536     -0.10092      0.01889     -0.10079     -0.19141
   
 Atom       C36          C37          C38          C39          C40     
 Charge   -0.16085     -0.16642     -0.07954     -0.12965     -0.17285
   
 Atom       C41          C42          C43          C44          C45     
 Charge   -0.06805     -0.00315     -0.07163     -0.11179     -0.09794
   
 Atom       C46          C47          C48          C49          C50     
 Charge   -0.17735     -0.12305     -0.13589     -0.13380     -0.13422
   
 Atom       C51          C52          C53          C54          C55     
 Charge   -0.12709     -0.18529     -0.06372     -0.14773     -0.12284
   
 Atom       C56          C57          C58          C59          C60     
 Charge   -0.13155     -0.13198     -0.19083     -0.08604     -0.15701
   
 Atom       C61          C62          C63          C64          C65     
 Charge   -0.16470     -0.10978     -0.11608     -0.11260     -0.18717
   
 Atom       C66          C67          C68          C69          C70     
 Charge    0.21314     -0.08429     -0.02012     -0.18161     -0.14690
   
 Atom       N71          S72          O73          O74          C75     
 Charge   -0.29634      0.68702     -0.45712     -0.45294      0.36419
   
 Atom       C76          C77          C78          C79          N80     
 Charge   -0.33486      0.08799     -0.26841      0.25524     -0.36849
   
 Atom       N81          C82          C83          C84          C85     
 Charge   -0.29466      0.04323     -0.27552     -0.13950      0.25944
   
 Atom       H86          H87          H88          H89          H90     
 Charge    0.09690      0.14115      0.13360      0.18284      0.12470
   
 Atom       H91          H92          H93          H94          H95     
 Charge    0.13688      0.20852      0.14613      0.13851      0.12194
   
 Atom       H96          H97          H98          H99          H100    
 Charge    0.35433      0.10163      0.13377      0.11534      0.09655
   
 Atom       H101         H102         H103         H104         H105    
 Charge    0.07719      0.12875      0.13263      0.08591      0.05883
   
 Atom       H106         H107         H108         H109         H110    
 Charge    0.11698      0.09814      0.08154      0.12301      0.12120
   
 Atom       H111         H112         H113         H114         H115    
 Charge    0.13370      0.12637      0.12651      0.12742      0.13152
   
 Atom       H116         H117         H118         H119         H120    
 Charge    0.11535      0.11065      0.10916      0.12751      0.11345
   
 Atom       H121         H122         H123         H124         H125    
 Charge    0.13481      0.11704      0.12166      0.12911      0.11697
   
 Atom       H126         H127         H128         H129         H130    
 Charge    0.10319      0.13289      0.12066      0.00670      0.08961
   
 Atom       H131         H132         H133         H134         H135    
 Charge    0.14067      0.18723      0.18243      0.11115      0.12607
   
 Atom       H136         H137         H138         H139         H140    
 Charge    0.06390      0.37397      0.14703      0.17810      0.14481
   
 Atom       H141    
 Charge    0.01765
  
  sum of atomic charges:     0.000000
   
 RMS Error   9.07E-04 hartrees
 
  Peak memory usage:    583 Mb
  
  end of program ch
   
 Time(ch)  user:       18.0  user+sys:       18.0  wallclock:       48.1
  
  start of program post
  
  Writing input files for PBF
  Peak memory usage:    534 Mb
  
  end of program post
   
 Time(post)  user:        0.0  user+sys:        0.0  wallclock:        0.6

  start of program pbf

Pbf Version 4.00

Molecular surface area:      788.10299   [A2]
Reaction field energy:       -15.28047   [kT]
  Peak memory usage: 556 Mb

  end of program pbf

 Time(pbf)  user:        8.5  user+sys:        8.6  wallclock:       21.3
  
  start of program solv
  
   number of surface charges from PBF   12982
   sum of surface charges     -0.00026
   
  nuclear repulsion energy.......   17611.857625080 hartrees
  Peak memory usage:    694 Mb
  
  end of program solv
   
 Time(solv)  user:       36.0  user+sys:       36.0  wallclock:       93.5
  
  start of program scf
  
  
       i  u  d  i  g                   
       t  p  i  c  r                                 RMS    maximum
       e  d  i  u  i                       energy  density   DIIS  
       r  t  s  t  d       total energy    change  change    error 
  
etot    1  N  N  1  U   -4711.55478063710           7.8E-06  1.1E-04
etot    2  N  N  1  U   -4711.55475514918 -2.5E-05  0.0E+00  0.0E+00
  
  
 Energy components, in hartrees:
   (A)  Total zero-electron terms....   17613.68444823695
   (B)    Nuclear-nuclear............   17611.85762508009
   (C)    Nuclear-solvent............       1.82682315686
   (E)  Total one-electron terms.....  -41568.98999888331
   (F)    Electron-nuclear...........  -46241.61715080586
   (G)    Electron-solvent...........      -1.85954618609
   (H)    Kinetic....................    4674.48669810864
   (I)  Total two-electron terms.....   19243.75079549719
   (J)    Coulomb....................   19818.88647043153
   (K)    Exchange+Correlation.......    -575.13567493435
   (L)  Electronic energy............  -22325.23920338613  (E+I)
   (N)  Total quantum mech. energy...   -4711.55475514918  (A+L)
   (O)  Gas phase energy.............   -4711.52313349725
   (P)  Solution phase energy........   -4711.53839363456  (Q+R+S)
   (Q)    Total solute energy........   -4711.52203211995  (N-C-G)
   (R)    Total solvent energy.......      -0.01636151462  (C/2+G/2)
   (S)    Solute cavity energy.......       0.00000000000
   (U)  Reorganization energy........       0.00110137730  (Q-O)
   (V)  Solvation energy.............      -0.01526013731  (P-O)
  
 SCFE:  Solution phase energy: DFT(b3lyp)      -4711.53839363456 hartrees
        SCF iterations:   2
  
 
 HOMO energy:    -0.22104
 LUMO energy:    -0.08420
 
  Orbital energies (hartrees): 
   -56.16247   -43.84340   -42.79122   -41.01030   -40.99379   -35.23236
   -29.04599   -23.93981   -19.84053   -19.08627   -18.07960   -17.60351
   -16.70557   -16.47625   -14.16523   -13.43149   -13.39781   -13.15455
   -12.66104   -12.59764   -12.20595   -11.87127   -11.09968   -10.86941
   -10.68174   -10.64896   -10.62324   -10.48587   -10.47973   -10.46349
   -10.44623   -10.38659   -10.36169   -10.32073   -10.28161   -10.26693
   -10.24122   -10.23627   -10.22322   -10.18167   -10.17071   -10.14626
   -10.14003   -10.13356   -10.13030   -10.12964   -10.12541   -10.10135
   -10.09447   -10.09294   -10.09160   -10.08931   -10.08481   -10.07135
   -10.06863   -10.06378   -10.04666   -10.04661   -10.04196   -10.03425
   -10.01776   -10.00796    -9.97288    -9.95373    -9.91561    -9.91476
    -9.90546    -9.87844    -9.80694    -9.80126    -9.76435    -9.75111
    -9.73915    -9.71097    -9.67433    -9.65289    -9.63628    -9.60991
    -9.58495    -9.58364    -9.55926    -9.53227    -9.52308    -9.47072
    -9.39405    -9.33069    -9.29885    -9.23034    -9.08059    -8.43284
    -8.32562    -8.30894    -7.51822    -6.34634    -6.27647    -5.93782
    -5.87558    -4.78700    -4.39567    -4.28129    -3.89290    -1.04905
    -0.94733    -0.93347    -0.92804    -0.92459    -0.88946    -0.88628
    -0.86964    -0.84512    -0.82709    -0.81719    -0.81132    -0.80980
    -0.79032    -0.78524    -0.78390    -0.78317    -0.78052    -0.77910
    -0.76991    -0.76392    -0.76050    -0.75175    -0.74730    -0.74531
    -0.73006    -0.72649    -0.72153    -0.71776    -0.71677    -0.70747
    -0.70696    -0.70610    -0.69055    -0.68832    -0.67571    -0.67512
    -0.67171    -0.66619    -0.66582    -0.65989    -0.65399    -0.64623
    -0.64138    -0.64084    -0.62920    -0.62052    -0.61700    -0.61662
    -0.61661    -0.60247    -0.59725    -0.59272    -0.58741    -0.58741
    -0.57929    -0.57816    -0.57650    -0.57587    -0.56621    -0.56583
    -0.56527    -0.56268    -0.56061    -0.56013    -0.55897    -0.55857
    -0.55614    -0.55311    -0.55111    -0.54958    -0.54753    -0.54140
    -0.53589    -0.53521    -0.53286    -0.53241    -0.53017    -0.52775
    -0.52605    -0.52457    -0.52097    -0.51628    -0.51440    -0.51124
    -0.50950    -0.50827    -0.50761    -0.50726    -0.50653    -0.50376
    -0.49539    -0.49489    -0.49281    -0.49241    -0.49181    -0.48918
    -0.48909    -0.48644    -0.48037    -0.47866    -0.47665    -0.47373
    -0.47091    -0.47066    -0.46655    -0.45800    -0.45549    -0.45504
    -0.45226    -0.45191    -0.44963    -0.44692    -0.44663    -0.44121
    -0.43962    -0.43950    -0.43841    -0.43685    -0.43591    -0.43376
    -0.43349    -0.43021    -0.42967    -0.42751    -0.42711    -0.42707
    -0.42621    -0.42535    -0.42531    -0.42286    -0.41940    -0.41413
    -0.41360    -0.41237    -0.41220    -0.40956    -0.40767    -0.40589
    -0.40460    -0.40364    -0.40217    -0.40216    -0.40178    -0.40098
    -0.40092    -0.40039    -0.39745    -0.39464    -0.39453    -0.39350
    -0.39258    -0.39253    -0.38962    -0.38946    -0.38644    -0.38372
    -0.38229    -0.38192    -0.37999    -0.37952    -0.37865    -0.37843
    -0.37791    -0.37750    -0.37665    -0.37336    -0.37114    -0.36988
    -0.36970    -0.36837    -0.36027    -0.35944    -0.35884    -0.35661
    -0.35647    -0.35639    -0.35454    -0.35161    -0.34972    -0.34589
    -0.33747    -0.33665    -0.33346    -0.33253    -0.32822    -0.32606
    -0.32268    -0.31096    -0.29767    -0.28071    -0.27915    -0.27194
    -0.27014    -0.26215    -0.25892    -0.25851    -0.25842    -0.25711
    -0.25532    -0.25151    -0.24836    -0.24415    -0.24028    -0.23346
    -0.23218    -0.22104    -0.08420    -0.05080    -0.04583    -0.03045
    -0.02947    -0.01776    -0.01462    -0.01223    -0.01159    -0.01031
 
  Peak memory usage:    839 Mb
  
  end of program scf
   
 Time(scf)  user:      738.0  user+sys:      747.0  wallclock:     1897.4
  
  start of program sole
  
    SCRF                   solvation energy
  iteration          Hartrees            kcal/mol
     0               0.0000000            0.0000
     1              -0.0143958           -9.0335
     2              -0.0152601           -9.5759
  
  solvation energy not yet converged... 
  
  Peak memory usage:    634 Mb
  
  end of program sole
   
 Time(sole)  user:        0.0  user+sys:        0.0  wallclock:        0.6
  
  start of program ch
  
  gridpoints used for charge fit        15657
    out of a possible maximum of        15657
  
   Electrostatic potential fitting constrained to reproduce
     total charge:                yes
     dipole moment:               no 
     traceless quadrupole moment: no 
     traceless octapole moment:   no 
  
  Atomic charges from electrostatic potential: 
   
 Atom       C1           C2           C3           C4           C5      
 Charge   -0.07011     -0.02805     -0.18852      0.18470      0.05280
   
 Atom       C6           C7           C8           C9           C10     
 Charge   -0.21393     -0.38584     -0.09542     -0.02092     -0.18168
   
 Atom       C11          O12          Si13         C14          C15     
 Charge    0.23250     -0.30545     -0.27910      0.19169      0.18876
   
 Atom       C16          C17          C18          C19          C20     
 Charge    0.21964     -0.21910     -0.46074     -0.23832      0.05885
   
 Atom       Si21         O22          C23          C24          P25     
 Charge    0.09321     -0.26563     -0.14894     -0.09995      0.99338
   
 Atom       O26          O27          C28          C29          C30     
 Charge   -0.60667     -0.61992      0.25244      0.17382      0.06353
   
 Atom       C31          C32          C33          C34          C35     
 Charge    0.07542     -0.10249      0.01644     -0.10061     -0.19436
   
 Atom       C36          C37          C38          C39          C40     
 Charge   -0.16115     -0.16742     -0.07959     -0.13127     -0.17301
   
 Atom       C41          C42          C43          C44          C45     
 Charge   -0.06814     -0.00294     -0.07194     -0.11141     -0.09914
   
 Atom       C46          C47          C48          C49          C50     
 Charge   -0.17643     -0.12291     -0.13524     -0.13427     -0.13375
   
 Atom       C51          C52          C53          C54          C55     
 Charge   -0.12699     -0.18558     -0.06384     -0.14790     -0.12467
   
 Atom       C56          C57          C58          C59          C60     
 Charge   -0.13135     -0.13151     -0.19187     -0.08537     -0.15703
   
 Atom       C61          C62          C63          C64          C65     
 Charge   -0.16470     -0.10909     -0.11612     -0.11020     -0.18713
   
 Atom       C66          C67          C68          C69          C70     
 Charge    0.21097     -0.08691     -0.01938     -0.18016     -0.15156
   
 Atom       N71          S72          O73          O74          C75     
 Charge   -0.29636      0.68107     -0.45679     -0.45159      0.36243
   
 Atom       C76          C77          C78          C79          N80     
 Charge   -0.33456      0.08999     -0.26697      0.25402     -0.36897
   
 Atom       N81          C82          C83          C84          C85     
 Charge   -0.29704      0.04904     -0.27232     -0.13943      0.25901
   
 Atom       H86          H87          H88          H89          H90     
 Charge    0.09701      0.14177      0.13388      0.18377      0.12530
   
 Atom       H91          H92          H93          H94          H95     
 Charge    0.13713      0.20931      0.14663      0.13903      0.12268
   
 Atom       H96          H97          H98          H99          H100    
 Charge    0.35312      0.10176      0.13360      0.11558      0.09665
   
 Atom       H101         H102         H103         H104         H105    
 Charge    0.07779      0.12953      0.13224      0.08601      0.05835
   
 Atom       H106         H107         H108         H109         H110    
 Charge    0.11746      0.09811      0.08198      0.12378      0.12227
   
 Atom       H111         H112         H113         H114         H115    
 Charge    0.13422      0.12714      0.12725      0.12814      0.13171
   
 Atom       H116         H117         H118         H119         H120    
 Charge    0.11543      0.11144      0.10943      0.12789      0.11422
   
 Atom       H121         H122         H123         H124         H125    
 Charge    0.13547      0.11767      0.12247      0.12963      0.11746
   
 Atom       H126         H127         H128         H129         H130    
 Charge    0.10373      0.13334      0.12178      0.00656      0.08925
   
 Atom       H131         H132         H133         H134         H135    
 Charge    0.14093      0.18823      0.18269      0.11227      0.12692
   
 Atom       H136         H137         H138         H139         H140    
 Charge    0.06419      0.37337      0.14706      0.17867      0.14525
   
 Atom       H141    
 Charge    0.01749
  
  sum of atomic charges:     0.000000
   
 RMS Error   9.09E-04 hartrees
 
  Peak memory usage:    583 Mb
  
  end of program ch
   
 Time(ch)  user:       18.0  user+sys:       19.0  wallclock:       41.3
  
  start of program post
  
  Writing input files for PBF
  Peak memory usage:    534 Mb
  
  end of program post
   
 Time(post)  user:        0.0  user+sys:        0.0  wallclock:        0.5

  start of program pbf

Pbf Version 4.00

Molecular surface area:      788.10299   [A2]
Reaction field energy:       -15.58687   [kT]
  Peak memory usage: 556 Mb

  end of program pbf

 Time(pbf)  user:        8.9  user+sys:        9.0  wallclock:       23.6
  
  start of program solv
  
   number of surface charges from PBF   12982
   sum of surface charges     -0.00027
   
  nuclear repulsion energy.......   17611.857625080 hartrees
  Peak memory usage:    694 Mb
  
  end of program solv
   
 Time(solv)  user:       37.0  user+sys:       37.0  wallclock:       87.7
  
  start of program scf
  
  
       i  u  d  i  g                   
       t  p  i  c  r                                 RMS    maximum
       e  d  i  u  i                       energy  density   DIIS  
       r  t  s  t  d       total energy    change  change    error 
  
etot    1  N  N  1  U   -4711.55506878111           1.4E-05  2.2E-04
etot    2  N  Y  1  U   -4711.55488579878 -1.8E-04  1.0E-05  5.7E-04
etot    3  N  Y  1  U   -4711.55510081647  2.2E-04  4.6E-07  1.1E-05
etot    4  N  N  1  U   -4711.55510092077  1.0E-07  0.0E+00  0.0E+00
  
  
 Energy components, in hartrees:
   (A)  Total zero-electron terms....   17613.74470866895
   (B)    Nuclear-nuclear............   17611.85762508009
   (C)    Nuclear-solvent............       1.88708358886
   (E)  Total one-electron terms.....  -41568.72532364279
   (F)    Electron-nuclear...........  -46241.27610985424
   (G)    Electron-solvent...........      -1.92004941346
   (H)    Kinetic....................    4674.47083562491
   (I)  Total two-electron terms.....   19243.42551405307
   (J)    Coulomb....................   19818.55920089075
   (K)    Exchange+Correlation.......    -575.13368683769
   (L)  Electronic energy............  -22325.29980958973  (E+I)
   (N)  Total quantum mech. energy...   -4711.55510092077  (A+L)
   (O)  Gas phase energy.............   -4711.52313349725
   (P)  Solution phase energy........   -4711.53861800847  (Q+R+S)
   (Q)    Total solute energy........   -4711.52213509617  (N-C-G)
   (R)    Total solvent energy.......      -0.01648291230  (C/2+G/2)
   (S)    Solute cavity energy.......       0.00000000000
   (U)  Reorganization energy........       0.00099840108  (Q-O)
   (V)  Solvation energy.............      -0.01548451122  (P-O)
  
 SCFE:  Solution phase energy: DFT(b3lyp)      -4711.53861800847 hartrees
        SCF iterations:   4
  
 
 HOMO energy:    -0.20851
 LUMO energy:    -0.08493
 
  Orbital energies (hartrees): 
   -89.11797   -77.21802   -66.11294   -66.11166   -19.18089   -19.17767
   -19.15305   -19.15264   -19.09730   -19.09556   -14.37871   -14.36935
   -14.34975   -10.28043   -10.25938   -10.25379   -10.25325   -10.24410
   -10.23237   -10.22881   -10.22022   -10.21902   -10.21102   -10.21004
   -10.20728   -10.20679   -10.20558   -10.20255   -10.20232   -10.20086
   -10.20035   -10.19841   -10.19820   -10.19725   -10.19688   -10.19518
   -10.19497   -10.19486   -10.19473   -10.19409   -10.19388   -10.19289
   -10.19270   -10.18961   -10.18960   -10.18909   -10.18878   -10.18873
   -10.18858   -10.18795   -10.18786   -10.18760   -10.18721   -10.18713
   -10.18673   -10.18659   -10.18629   -10.18611   -10.18480   -10.18473
   -10.18378   -10.18333   -10.18285   -10.18230   -10.18182   -10.18089
   -10.18009   -10.18000   -10.17997   -10.17993   -10.17970   -10.17928
   -10.17907   -10.17827   -10.17739   -10.17734   -10.17670   -10.17539
   -10.17528   -10.17219   -10.17202   -10.16961   -10.16701   -10.16695
   -10.16389    -8.14438    -6.66220    -6.10933    -6.10833    -6.10728
    -5.25948    -5.25823    -4.82717    -4.82569    -4.82372    -3.61858
    -3.61805    -3.61778    -3.61717    -3.61683    -3.61666    -1.11847
    -1.08865    -1.04557    -1.00786    -0.99062    -0.97212    -0.96453
    -0.94549    -0.92620    -0.87581    -0.86254    -0.86203    -0.84160
    -0.84150    -0.83702    -0.83610    -0.83287    -0.83101    -0.81941
    -0.81824    -0.81025    -0.79511    -0.79106    -0.78973    -0.77355
    -0.75730    -0.75161    -0.74735    -0.74706    -0.74114    -0.74079
    -0.73912    -0.73739    -0.73595    -0.73477    -0.73433    -0.73357
    -0.73180    -0.73170    -0.72968    -0.72835    -0.72687    -0.72673
    -0.70793    -0.70691    -0.65991    -0.64705    -0.64645    -0.62585
    -0.62206    -0.61692    -0.61276    -0.60588    -0.60582    -0.59809
    -0.59719    -0.59630    -0.59349    -0.59294    -0.59112    -0.58949
    -0.58810    -0.58623    -0.58468    -0.58238    -0.58166    -0.58065
    -0.57888    -0.57615    -0.57540    -0.56697    -0.56077    -0.55901
    -0.54098    -0.53162    -0.52945    -0.52624    -0.52084    -0.51900
    -0.50646    -0.50574    -0.50304    -0.50206    -0.50056    -0.49962
    -0.49830    -0.49586    -0.48746    -0.48310    -0.47280    -0.47176
    -0.46874    -0.46804    -0.46371    -0.46194    -0.45670    -0.45494
    -0.45318    -0.44990    -0.44747    -0.44690    -0.44588    -0.44331
    -0.44212    -0.44174    -0.44064    -0.43846    -0.43657    -0.43524
    -0.43451    -0.43249    -0.43235    -0.42984    -0.42856    -0.42722
    -0.42674    -0.42657    -0.42512    -0.42373    -0.42365    -0.41790
    -0.41760    -0.41708    -0.41661    -0.41560    -0.41273    -0.41191
    -0.41056    -0.40982    -0.40709    -0.40344    -0.40269    -0.40208
    -0.39439    -0.39203    -0.38776    -0.38643    -0.38447    -0.38313
    -0.37996    -0.37845    -0.37296    -0.37130    -0.36659    -0.36287
    -0.36103    -0.35931    -0.35758    -0.35672    -0.35443    -0.35154
    -0.35136    -0.34855    -0.34695    -0.34538    -0.34529    -0.34123
    -0.34017    -0.33917    -0.33603    -0.33519    -0.33149    -0.33067
    -0.32954    -0.32878    -0.32670    -0.32639    -0.32174    -0.32018
    -0.31959    -0.31547    -0.31064    -0.30768    -0.30532    -0.29933
    -0.29630    -0.29292    -0.28868    -0.28744    -0.28668    -0.28594
    -0.28463    -0.27800    -0.27678    -0.27135    -0.27001    -0.26918
    -0.26028    -0.25717    -0.25395    -0.24977    -0.24946    -0.24913
    -0.24878    -0.24576    -0.24398    -0.24133    -0.23968    -0.23789
    -0.23747    -0.23641    -0.23528    -0.23363    -0.23262    -0.22908
    -0.22191    -0.20851    -0.08493    -0.05133    -0.04656    -0.03108
    -0.03000    -0.01826    -0.01512    -0.01269    -0.01203    -0.01068
 
  Peak memory usage:    839 Mb
  
  end of program scf
   
 Time(scf)  user:     2127.0  user+sys:     2151.0  wallclock:     5370.6
  
  start of program sole
  
    SCRF                   solvation energy
  iteration          Hartrees            kcal/mol
     0               0.0000000            0.0000
     1              -0.0143958           -9.0335
     2              -0.0152601           -9.5759
     3              -0.0154845           -9.7167
  
  solvation energy not yet converged... 
  
  Peak memory usage:    634 Mb
  
  end of program sole
   
 Time(sole)  user:        0.0  user+sys:        0.0  wallclock:        0.5
  
  start of program ch
  
  gridpoints used for charge fit        15657
    out of a possible maximum of        15657
  
   Electrostatic potential fitting constrained to reproduce
     total charge:                yes
     dipole moment:               no 
     traceless quadrupole moment: no 
     traceless octapole moment:   no 
  
  Atomic charges from electrostatic potential: 
   
 Atom       C1           C2           C3           C4           C5      
 Charge   -0.06958     -0.02756     -0.18940      0.18412      0.05200
   
 Atom       C6           C7           C8           C9           C10     
 Charge   -0.21379     -0.38656     -0.09606     -0.01883     -0.17968
   
 Atom       C11          O12          Si13         C14          C15     
 Charge    0.23313     -0.30549     -0.27836      0.19051      0.18981
   
 Atom       C16          C17          C18          C19          C20     
 Charge    0.21977     -0.21817     -0.46202     -0.23898      0.05958
   
 Atom       Si21         O22          C23          C24          P25     
 Charge    0.09349     -0.26580     -0.15009     -0.10045      0.99401
   
 Atom       O26          O27          C28          C29          C30     
 Charge   -0.60767     -0.61932      0.25420      0.17425      0.06426
   
 Atom       C31          C32          C33          C34          C35     
 Charge    0.07573     -0.10185      0.01764     -0.10104     -0.19331
   
 Atom       C36          C37          C38          C39          C40     
 Charge   -0.16099     -0.16678     -0.07986     -0.13048     -0.17298
   
 Atom       C41          C42          C43          C44          C45     
 Charge   -0.06792     -0.00290     -0.07161     -0.11182     -0.09821
   
 Atom       C46          C47          C48          C49          C50     
 Charge   -0.17721     -0.12351     -0.13576     -0.13435     -0.13420
   
 Atom       C51          C52          C53          C54          C55     
 Charge   -0.12747     -0.18580     -0.06390     -0.14842     -0.12432
   
 Atom       C56          C57          C58          C59          C60     
 Charge   -0.13168     -0.13228     -0.19181     -0.08579     -0.15742
   
 Atom       C61          C62          C63          C64          C65     
 Charge   -0.16498     -0.10972     -0.11646     -0.11170     -0.18769
   
 Atom       C66          C67          C68          C69          C70     
 Charge    0.21304     -0.08541     -0.01971     -0.18146     -0.15035
   
 Atom       N71          S72          O73          O74          C75     
 Charge   -0.29328      0.68386     -0.45836     -0.45328      0.36310
   
 Atom       C76          C77          C78          C79          N80     
 Charge   -0.33459      0.08823     -0.26759      0.25385     -0.36752
   
 Atom       N81          C82          C83          C84          C85     
 Charge   -0.29565      0.04491     -0.27445     -0.14004      0.26000
   
 Atom       H86          H87          H88          H89          H90     
 Charge    0.09683      0.14183      0.13382      0.18358      0.12537
   
 Atom       H91          H92          H93          H94          H95     
 Charge    0.13693      0.20914      0.14675      0.13918      0.12279
   
 Atom       H96          H97          H98          H99          H100    
 Charge    0.35293      0.10161      0.13358      0.11538      0.09638
   
 Atom       H101         H102         H103         H104         H105    
 Charge    0.07750      0.12922      0.13250      0.08581      0.05825
   
 Atom       H106         H107         H108         H109         H110    
 Charge    0.11728      0.09807      0.08172      0.12380      0.12225
   
 Atom       H111         H112         H113         H114         H115    
 Charge    0.13415      0.12705      0.12722      0.12808      0.13158
   
 Atom       H116         H117         H118         H119         H120    
 Charge    0.11533      0.11128      0.10945      0.12780      0.11417
   
 Atom       H121         H122         H123         H124         H125    
 Charge    0.13539      0.11766      0.12242      0.12959      0.11747
   
 Atom       H126         H127         H128         H129         H130    
 Charge    0.10352      0.13357      0.12159      0.00685      0.08920
   
 Atom       H131         H132         H133         H134         H135    
 Charge    0.14115      0.18772      0.18253      0.11242      0.12660
   
 Atom       H136         H137         H138         H139         H140    
 Charge    0.06426      0.37370      0.14758      0.17922      0.14535
   
 Atom       H141    
 Charge    0.01787
  
  sum of atomic charges:     0.000000
   
 RMS Error   9.09E-04 hartrees
 
  Peak memory usage:    583 Mb
  
  end of program ch
   
 Time(ch)  user:       18.0  user+sys:       19.0  wallclock:       47.5
  
  start of program post
  
  Writing input files for PBF
  Peak memory usage:    534 Mb
  
  end of program post
   
 Time(post)  user:        0.0  user+sys:        0.0  wallclock:        0.6

  start of program pbf

Pbf Version 4.00

Molecular surface area:      788.10299   [A2]
Reaction field energy:       -15.51587   [kT]
  Peak memory usage: 556 Mb

  end of program pbf

 Time(pbf)  user:        9.2  user+sys:        9.3  wallclock:       21.4
  
  start of program solv
  
   number of surface charges from PBF   12982
   sum of surface charges     -0.00026
   
  nuclear repulsion energy.......   17611.857625080 hartrees
  Peak memory usage:    694 Mb
  
  end of program solv
   
 Time(solv)  user:       37.0  user+sys:       37.0  wallclock:      110.0
  
  start of program scf
  
  
       i  u  d  i  g                   
       t  p  i  c  r                                 RMS    maximum
       e  d  i  u  i                       energy  density   DIIS  
       r  t  s  t  d       total energy    change  change    error 
  
etot    1  N  N  1  U   -4711.55503260838           8.6E-07  1.3E-05
etot    2  N  N  1  U   -4711.55503255645 -5.2E-08  0.0E+00  0.0E+00
  
  
 Energy components, in hartrees:
   (A)  Total zero-electron terms....   17613.72243498454
   (B)    Nuclear-nuclear............   17611.85762508009
   (C)    Nuclear-solvent............       1.86480990445
   (E)  Total one-electron terms.....  -41568.65481563620
   (F)    Electron-nuclear...........  -46241.22728264811
   (G)    Electron-solvent...........      -1.89768454985
   (H)    Kinetic....................    4674.47015156176
   (I)  Total two-electron terms.....   19243.37734809520
   (J)    Coulomb....................   19818.51095409609
   (K)    Exchange+Correlation.......    -575.13360600089
   (L)  Electronic energy............  -22325.27746754099  (E+I)
   (N)  Total quantum mech. energy...   -4711.55503255645  (A+L)
   (O)  Gas phase energy.............   -4711.52313349725
   (P)  Solution phase energy........   -4711.53859523375  (Q+R+S)
   (Q)    Total solute energy........   -4711.52215791105  (N-C-G)
   (R)    Total solvent energy.......      -0.01643732270  (C/2+G/2)
   (S)    Solute cavity energy.......       0.00000000000
   (U)  Reorganization energy........       0.00097558619  (Q-O)
   (V)  Solvation energy.............      -0.01546173650  (P-O)
  
 SCFE:  Solution phase energy: DFT(b3lyp)      -4711.53859523375 hartrees
        SCF iterations:   2
  
 
 HOMO energy:    -0.20855
 LUMO energy:    -0.08497
 
  Orbital energies (hartrees): 
   -89.11812   -77.21815   -66.11311   -66.11179   -19.18106   -19.17772
   -19.15325   -19.15264   -19.09726   -19.09567   -14.37876   -14.36928
   -14.34973   -10.28054   -10.25954   -10.25400   -10.25345   -10.24401
   -10.23236   -10.22900   -10.22013   -10.21909   -10.21112   -10.20992
   -10.20723   -10.20694   -10.20565   -10.20253   -10.20245   -10.20075
   -10.20043   -10.19838   -10.19805   -10.19744   -10.19677   -10.19502
   -10.19497   -10.19496   -10.19459   -10.19420   -10.19388   -10.19296
   -10.19269   -10.18965   -10.18956   -10.18916   -10.18865   -10.18861
   -10.18846   -10.18789   -10.18776   -10.18772   -10.18730   -10.18708
   -10.18667   -10.18641   -10.18633   -10.18608   -10.18495   -10.18461
   -10.18386   -10.18334   -10.18290   -10.18225   -10.18181   -10.18088
   -10.18012   -10.18005   -10.17994   -10.17994   -10.17974   -10.17933
   -10.17912   -10.17822   -10.17739   -10.17739   -10.17699   -10.17560
   -10.17543   -10.17233   -10.17227   -10.16989   -10.16714   -10.16697
   -10.16411    -8.14452    -6.66231    -6.10947    -6.10846    -6.10741
    -5.25964    -5.25836    -4.82729    -4.82581    -4.82384    -3.61875
    -3.61822    -3.61795    -3.61730    -3.61696    -3.61679    -1.11855
    -1.08878    -1.04569    -1.00794    -0.99066    -0.97219    -0.96456
    -0.94554    -0.92627    -0.87585    -0.86258    -0.86206    -0.84163
    -0.84151    -0.83705    -0.83613    -0.83290    -0.83105    -0.81941
    -0.81822    -0.81028    -0.79515    -0.79112    -0.78976    -0.77359
    -0.75732    -0.75164    -0.74738    -0.74710    -0.74114    -0.74083
    -0.73915    -0.73742    -0.73599    -0.73480    -0.73435    -0.73359
    -0.73183    -0.73174    -0.72974    -0.72839    -0.72691    -0.72677
    -0.70798    -0.70695    -0.65994    -0.64711    -0.64646    -0.62589
    -0.62212    -0.61694    -0.61282    -0.60592    -0.60585    -0.59811
    -0.59722    -0.59634    -0.59352    -0.59298    -0.59115    -0.58951
    -0.58814    -0.58626    -0.58471    -0.58241    -0.58169    -0.58067
    -0.57891    -0.57619    -0.57544    -0.56702    -0.56082    -0.55905
    -0.54106    -0.53167    -0.52948    -0.52628    -0.52087    -0.51903
    -0.50648    -0.50575    -0.50305    -0.50208    -0.50058    -0.49964
    -0.49832    -0.49589    -0.48749    -0.48314    -0.47284    -0.47179
    -0.46879    -0.46807    -0.46377    -0.46199    -0.45674    -0.45499
    -0.45323    -0.44995    -0.44749    -0.44692    -0.44590    -0.44334
    -0.44214    -0.44177    -0.44070    -0.43849    -0.43660    -0.43526
    -0.43456    -0.43251    -0.43239    -0.42983    -0.42859    -0.42725
    -0.42678    -0.42660    -0.42514    -0.42376    -0.42369    -0.41790
    -0.41763    -0.41710    -0.41663    -0.41560    -0.41276    -0.41193
    -0.41059    -0.40986    -0.40712    -0.40346    -0.40273    -0.40213
    -0.39442    -0.39201    -0.38779    -0.38645    -0.38450    -0.38317
    -0.37999    -0.37848    -0.37296    -0.37133    -0.36664    -0.36290
    -0.36107    -0.35934    -0.35759    -0.35675    -0.35448    -0.35157
    -0.35140    -0.34857    -0.34698    -0.34542    -0.34532    -0.34127
    -0.34021    -0.33918    -0.33603    -0.33522    -0.33153    -0.33069
    -0.32956    -0.32881    -0.32675    -0.32646    -0.32178    -0.32024
    -0.31963    -0.31553    -0.31070    -0.30774    -0.30535    -0.29937
    -0.29638    -0.29298    -0.28872    -0.28755    -0.28675    -0.28601
    -0.28468    -0.27802    -0.27684    -0.27139    -0.27006    -0.26922
    -0.26033    -0.25720    -0.25398    -0.24982    -0.24948    -0.24916
    -0.24880    -0.24580    -0.24402    -0.24135    -0.23972    -0.23793
    -0.23753    -0.23644    -0.23534    -0.23368    -0.23267    -0.22912
    -0.22194    -0.20855    -0.08497    -0.05135    -0.04657    -0.03111
    -0.03005    -0.01831    -0.01517    -0.01274    -0.01206    -0.01072
 
  Peak memory usage:    839 Mb
  
  end of program scf
   
 Time(scf)  user:      717.0  user+sys:      726.0  wallclock:     1861.4
  
  start of program sole
  
    SCRF                   solvation energy
  iteration          Hartrees            kcal/mol
     0               0.0000000            0.0000
     1              -0.0143958           -9.0335
     2              -0.0152601           -9.5759
     3              -0.0154845           -9.7167
     4              -0.0154617           -9.7024
  
  stopping: solvation energy converged
  
  iterations:   4    sfinal:     -9.7024 kcal/mol
  
  Peak memory usage:    634 Mb
  
  end of program sole
   
 Time(sole)  user:        0.0  user+sys:        0.0  wallclock:        0.6
  
  start of program post
  
  Writing input files for PBF
  Peak memory usage:    534 Mb
  
  end of program post
   
 Time(post)  user:        0.0  user+sys:        0.0  wallclock:        0.7

 Total cpu seconds     user:   17057.000   user+sys:   17263.000
  
 Total elapsed time:    45827 seconds

Job B3LYP-SPE-Toru-SiPh3-Type-I-E-3-chkp-unrestrained2 completed on tethys at Thu Nov 24 03:00:01 2016
