[running at reduced cpu priority]
Job B3LYP-SPE-Toru-SiPh3-Type-I-E-3-chkp-unrestrained2 started on tethys at Wed Nov 23 14:16:14 2016
jobid: tethys-0-5835a4ad 
Jaguar version 8.4, release  16
Molecular Point Group: C1      
Point Group used: C1
pre (input checking) done.
onee (1-electron integrals) done.
hfig (HF initial guess) done.
probe (project orbitals) done.
grid (grid generation) done.
rwr (Q operators) done.
scf type: DFT=Becke_3_Parameter/HF+Slater+Becke88+VWN+LYP (B3LYP)
  
       i  u  d  i  g
       t  p  i  c  r                                 RMS    maximum
       e  d  i  u  i                       energy  density   DIIS  
       r  t  s  t  d       total energy    change  change    error 
  
etot    1  N  N  1  U   -4700.96686616025           3.0E-03  1.1E-01
etot    2  N  Y  1  U   -4698.71661295944 -2.3E+00  4.4E-03  1.5E-01
etot    3  N  Y  1  U   -4676.09278139137 -2.3E+01  4.4E-03  3.5E-01
etot    4  N  Y  1  U   -4704.55817609443  2.8E+01  4.3E-03  8.3E-02
etot    5  N  Y  1  U   -4683.06229897470 -2.1E+01  4.0E-03  1.6E-01
etot    6  N  Y  1  U   -4711.06682158738  2.8E+01  9.3E-04  2.4E-02
etot    7  N  Y  1  U   -4711.07799606583  1.1E-02  5.2E-04  2.5E-02
etot    8  N  Y  1  U   -4711.48936088194  4.1E-01  1.5E-04  5.1E-03
etot    9  N  Y  1  U   -4711.51666224637  2.7E-02  7.4E-05  2.2E-03
etot   10  N  Y  1  U   -4711.52044724204  3.8E-03  3.8E-05  2.4E-03
etot   11  N  Y  1  U   -4711.52271281404  2.3E-03  1.7E-05  7.8E-04
etot   12  N  Y  1  U   -4711.52302104629  3.1E-04  9.6E-06  4.0E-04
etot   13  N  Y  1  U   -4711.52311395371  9.3E-05  4.1E-06  1.6E-04
etot   14  N  N  1  U   -4711.52313349725  2.0E-05  0.0E+00  0.0E+00
scf (DFT) done.
--------gas phase calculation complete----------------------
ch (properties) done.
post (output conversion) done.
pbf (Poisson-Boltzmann solver) done.
solv (solvation checking) done.
  
       i  u  d  i  g
       t  p  i  c  r                                 RMS    maximum
       e  d  i  u  i                       energy  density   DIIS  
       r  t  s  t  d       total energy    change  change    error 
  
etot    1  N  N  1  U   -4711.55191669636           5.7E-05  8.8E-04
etot    2  N  Y  1  U   -4711.55228314479  3.7E-04  2.2E-05  1.0E-03
etot    3  N  Y  1  U   -4711.55263150304  3.5E-04  8.2E-06  3.5E-04
etot    4  N  Y  1  U   -4711.55270942181  7.8E-05  3.8E-06  1.6E-04
etot    5  N  N  1  U   -4711.55272539435  1.6E-05  0.0E+00  0.0E+00
scf (DFT) done.
sole (solvation energy) done.
----------solvation iteration  1 complete------------------
ch (properties) done.
post (output conversion) done.
pbf (Poisson-Boltzmann solver) done.
solv (solvation checking) done.
  
       i  u  d  i  g
       t  p  i  c  r                                 RMS    maximum
       e  d  i  u  i                       energy  density   DIIS  
       r  t  s  t  d       total energy    change  change    error 
  
etot    1  N  N  1  U   -4711.55478063710           7.8E-06  1.1E-04
etot    2  N  N  1  U   -4711.55475514918 -2.5E-05  0.0E+00  0.0E+00
scf (DFT) done.
sole (solvation energy) done.
----------solvation iteration  2 complete------------------
ch (properties) done.
post (output conversion) done.
pbf (Poisson-Boltzmann solver) done.
solv (solvation checking) done.
  
       i  u  d  i  g
       t  p  i  c  r                                 RMS    maximum
       e  d  i  u  i                       energy  density   DIIS  
       r  t  s  t  d       total energy    change  change    error 
  
etot    1  N  N  1  U   -4711.55506878111           1.4E-05  2.2E-04
etot    2  N  Y  1  U   -4711.55488579878 -1.8E-04  1.0E-05  5.7E-04
etot    3  N  Y  1  U   -4711.55510081647  2.2E-04  4.6E-07  1.1E-05
etot    4  N  N  1  U   -4711.55510092077  1.0E-07  0.0E+00  0.0E+00
scf (DFT) done.
sole (solvation energy) done.
----------solvation iteration  3 complete------------------
ch (properties) done.
post (output conversion) done.
pbf (Poisson-Boltzmann solver) done.
solv (solvation checking) done.
  
       i  u  d  i  g
       t  p  i  c  r                                 RMS    maximum
       e  d  i  u  i                       energy  density   DIIS  
       r  t  s  t  d       total energy    change  change    error 
  
etot    1  N  N  1  U   -4711.55503260838           8.6E-07  1.3E-05
etot    2  N  N  1  U   -4711.55503255645 -5.2E-08  0.0E+00  0.0E+00
scf (DFT) done.
sole (solvation energy) done.
----final solvation iteration  4 complete------------------
post (output conversion) done.
Job B3LYP-SPE-Toru-SiPh3-Type-I-E-3-chkp-unrestrained2 completed on tethys at Thu Nov 24 03:00:02 2016
