Job Toru-SiPh3-Type-II-E-1-scan-unrestrained_SPE_B3LYP started on tethys at Mon Nov 14 11:35:56 2016
jobid: tethys-0-5829a19c

  +--------------------------------------------------------------------+
  |  Jaguar version 8.4, release  16                                   |
  |                                                                    |
  |  Copyright Schrodinger, Inc.                                       |
  |  All Rights Reserved.                                              |
  |                                                                    |
  |  The following have contributed to Jaguar (listed alphabetically): |
  |  Mike Beachy, Art Bochevarov, Dale Braden, Yixiang Cao,            |
  |  Chris Cortis, Rich Friesner, Bill Goddard, Hod Greeley,           |
  |  Tom Hughes, Jean-Marc Langlois, Daniel Mainz, Rob Murphy,         |
  |  Dean Philipp, Tom Pollard, Murco Ringnalda.                       |
  |                                                                    |
  |  Use of this program should be acknowledged in publications as:    |
  |                                                                    |
  |  Jaguar, version 8.4, Schrodinger, Inc., New York, NY, 2013.       |
  |                                                                    |
  |  A. D. Bochevarov, E. Harder, T. F. Hughes, J. R. Greenwood,       |
  |  D. A. Braden, D. M. Philipp, D. Rinaldo, M. D. Halls,             |
  |  J. Zhang, R. A. Friesner, "Jaguar: A High-Performance Quantum     |
  |  Chemistry Software Program with Strengths in Life and Materials   |
  |  Sciences", Int. J. Quantum Chem., 2013, 113(18), 2110-2142.       |
  +--------------------------------------------------------------------+
  
  start of program pre
  
  Job name: Toru-SiPh3-Type-II-E-1-scan-unrestrained_SPE_B3LYP
  Executables used: /usr/local/shared/schrodinger/current/jaguar-v84016/bin/Linux-x86_64
  Temporary files : /home/ab2144/.schrodinger/tmp/Toru-SiPh3-Type-II-E-1-scan-unrestrained_SPE_B3LYP
  Maestro file (input):  Toru-SiPh3-Type-II-E-1-scan-unrestrained_SPE_B3LYP.mae
  Maestro file (output): Toru-SiPh3-Type-II-E-1-scan-unrestrained_SPE_B3LYP.01.mae
  
  
  basis set:             6-31g**         
  net molecular charge:    0
  multiplicity:            1
  
  keygrid settings 
    wispc.....   7.500E-01
    ldens.....   0
    denspc....   7.500E-01
  
   grid     daf set  nls  grid set  Q type
  ------    -------  ---  --------  ------
  coarse       1      1       1        1
  medium       2      2       2        1
  fine         3      2       3        0
  ultrafine    4      2       4        1
  charge       0      1      -1        1
  gradient     5      2       4        1
  density      0      1       0        0
  DFT-fine     0      1     -13        0
  DFT-med.     0      1     -13        0
  DFT-grad     0      1     -13        0
  DFT-der2     0      1       0        0
  DFT-cphf     0      1       0        0
  LMP2-enrg    4      2       4        1
  LMP2-grad    5      2       2        1
  DFT-cphf2    0      1       0        0
  PBF-dens     0      1       0        0
  plotting     0      1       0        0
  
  idftgrdm  100
  ndftgrdm   50    0    0
  idftgrdf  111
  ndftgrdf   85    0    0
  idftgrdg  111
  ndftgrdg   80    3    0
  idftgrdu  433
  ndftgrdu  105    0    0
  idftgrdd  433
  ndftgrdd  105    0    0
  idftgrdc  433
  ndftgrdc   26    0    0
  idftgrdp  433
  ndftgrdp   18    0    0
  
  number of basis functions....         1571
  
 Input geometry:
                                   angstroms
  atom               x                 y                 z
  C1           -0.3979000000      5.0426000000      1.9311000000 
  C2           -1.3053000000      4.0288000000      1.3277000000 
  C3           -0.8609000000      5.9076000000      2.8409000000 
  C4           -2.5902000000      3.9679000000      1.7429000000 
  C5           -0.8139000000      3.0467000000      0.3157000000 
  C6           -3.0939000000      4.9342000000      2.7462000000 
  C7           -3.4945000000      2.9349000000      1.2018000000 
  C8           -2.2737000000      5.8557000000      3.2626000000 
  C9           -1.6104000000      2.0309000000     -0.0679000000 
  C10           0.5377000000      3.1658000000     -0.2859000000 
  C11          -3.0442000000      2.0161000000      0.3337000000 
  O12          -1.0939000000      1.0298000000     -0.8491000000 
  Si13         -4.2606000000      0.7773000000     -0.3525000000 
  C14           0.8958000000      4.2618000000     -0.9984000000 
  C15           1.5184000000      2.0483000000     -0.1025000000 
  C16           2.2974000000      4.4141000000     -1.4566000000 
  C17          -0.0584000000      5.3436000000     -1.3605000000 
  C18           3.2020000000      3.4698000000     -1.1821000000 
  C19           2.6765000000      5.6351000000     -2.1961000000 
  C20           2.8114000000      2.2389000000     -0.4593000000 
  Si21          4.1257000000      0.9369000000     -0.1779000000 
  O22           1.1554000000      0.9054000000      0.5774000000 
  C23           0.3552000000      6.4196000000     -2.0401000000 
  C24           1.7628000000      6.5737000000     -2.4630000000 
  P25          -0.1228000000      0.0105000000      0.0034000000 
  O26          -0.8251000000     -0.4892000000      1.2492000000 
  O27           0.3676000000     -1.0170000000     -0.9920000000 
  C28          -4.6109000000     -0.5146000000      0.9488000000 
  C29          -5.8239000000      1.7240000000     -0.7369000000 
  C30          -3.6287000000      0.0063000000     -1.9333000000 
  C31           4.2020000000      0.4635000000      1.6304000000 
  C32           3.7681000000     -0.4639000000     -1.3631000000 
  C33           5.8001000000      1.6415000000     -0.5694000000 
  C34          -4.0092000000     -0.4658000000      2.1505000000 
  C35          -5.6006000000     -1.5871000000      0.6783000000 
  C36          -5.7906000000      2.7673000000     -1.5845000000 
  C37          -7.1044000000      1.3816000000     -0.0662000000 
  C38          -3.1795000000      0.7841000000     -2.9348000000 
  C39          -3.6044000000     -1.4674000000     -2.1023000000 
  C40           3.4889000000      1.1382000000      2.5520000000 
  C41           5.1576000000     -0.5762000000      2.0880000000 
  C42           4.4453000000     -1.6229000000     -1.3029000000 
  C43           2.8249000000     -0.2427000000     -2.4900000000 
  C44           6.3136000000      2.6093000000      0.2086000000 
  C45           6.5760000000      1.1556000000     -1.7369000000 
  C46          -4.3374000000     -1.4627000000      3.1901000000 
  C47          -5.2290000000     -2.4276000000      2.9375000000 
  C48          -5.8886000000     -2.4948000000      1.6188000000 
  C49          -7.0198000000      3.5316000000     -1.8808000000 
  C50          -8.1733000000      3.2017000000     -1.2905000000 
  C51          -8.2156000000      2.0790000000     -0.3337000000 
  C52          -2.6707000000      0.1798000000     -4.1832000000 
  C53          -2.6578000000     -1.1492000000     -4.3279000000 
  C54          -3.1466000000     -2.0124000000     -3.2362000000 
  C55           3.5772000000      0.7756000000      3.9816000000 
  C56           4.3922000000     -0.2082000000      4.3747000000 
  C57           5.2330000000     -0.9055000000      3.3834000000 
  C58           4.1984000000     -2.6892000000     -2.2954000000 
  C59           3.3372000000     -2.4862000000     -3.2970000000 
  C60           2.6285000000     -1.1973000000     -3.4069000000 
  C61           7.6428000000      3.1797000000     -0.0927000000 
  C62           8.3402000000      2.7352000000     -1.1446000000 
  C63           7.7800000000      1.6752000000     -2.0071000000 
  C64          -0.2224000000     -6.0681000000     -3.8825000000 
  C65          -0.0939000000     -5.8297000000     -2.5156000000 
  C66           0.0825000000     -4.5218000000     -2.0359000000 
  C67           0.1029000000     -3.4492000000     -2.9422000000 
  C68          -0.0267000000     -3.6963000000     -4.3061000000 
  C69          -0.1871000000     -5.0006000000     -4.7807000000 
  C70           0.2656000000     -4.3516000000     -0.5733000000 
  N71           1.1308000000     -3.4315000000     -0.0722000000 
  S72           2.1030000000     -3.8023000000      1.3031000000 
  O73           2.0769000000     -5.2567000000      1.4178000000 
  O74           3.3306000000     -3.0421000000      1.0985000000 
  C75           1.2882000000     -3.0724000000      2.7575000000 
  C76           1.3145000000     -1.6893000000      2.9050000000 
  C77           0.6950000000     -1.1662000000      4.0392000000 
  C78           0.1260000000     -2.0429000000      4.9598000000 
  C79           0.1775000000     -3.4162000000      4.7027000000 
  N80           0.7386000000     -3.9330000000      3.6036000000 
  N81          -1.6903000000     -3.0171000000      1.1389000000 
  C82          -2.2708000000     -3.8274000000      2.0342000000 
  C83          -2.7235000000     -4.9955000000      1.3939000000 
  C84          -2.3968000000     -4.8612000000      0.0498000000 
  C85          -1.6851000000     -3.6358000000     -0.1049000000 
  H86           0.6465000000      5.0854000000      1.6522000000 
  H87          -0.1973000000      6.6430000000      3.2773000000 
  H88          -4.1277000000      4.8968000000      3.0666000000 
  H89          -4.5315000000      2.9313000000      1.5165000000 
  H90          -2.6419000000      6.5604000000      3.9969000000 
  H91          -1.1064000000      5.2729000000     -1.1007000000 
  H92           4.2218000000      3.5972000000     -1.5207000000 
  H93           3.6983000000      5.7792000000     -2.5267000000 
  H94          -0.3565000000      7.1940000000     -2.2963000000 
  H95           2.0544000000      7.4634000000     -3.0063000000 
  H96           1.0897000000     -2.4358000000     -0.4181000000 
  H97          -3.2865000000      0.3022000000      2.3873000000 
  H98          -6.1032000000     -1.6340000000     -0.2797000000 
  H99          -4.8676000000      3.0809000000     -2.0485000000 
  H100         -7.1545000000      0.5836000000      0.6590000000 
  H101         -3.1455000000      1.8591000000     -2.8342000000 
  H102         -3.9383000000     -2.1200000000     -1.3114000000 
  H103          2.8469000000      1.9618000000      2.2771000000 
  H104          5.8318000000     -1.0501000000      1.3928000000 
  H105          5.1953000000     -1.7952000000     -0.5511000000 
  H106          2.2971000000      0.6953000000     -2.5934000000 
  H107          5.7630000000      2.9851000000      1.0624000000 
  H108          6.1757000000      0.3881000000     -2.3849000000 
  H109         -3.8482000000     -1.4143000000      4.1544000000 
  H110         -5.4649000000     -3.1623000000      3.6963000000 
  H111         -6.6112000000     -3.2749000000      1.4179000000 
  H112         -6.9830000000      4.3612000000     -2.5750000000 
  H113         -9.0743000000      3.7619000000     -1.5047000000 
  H114         -9.1458000000      1.8292000000      0.1601000000 
  H115         -2.3065000000      0.8162000000     -4.9793000000 
  H116         -2.2863000000     -1.5937000000     -5.2419000000 
  H117         -3.1221000000     -3.0887000000     -3.3504000000 
  H118          2.9731000000      1.3032000000      4.7083000000 
  H119          4.4536000000     -0.4791000000      5.4206000000 
  H120          5.9334000000     -1.6627000000      3.7115000000 
  H121          4.7251000000     -3.6312000000     -2.2149000000 
  H122          3.1589000000     -3.2641000000     -4.0282000000 
  H123          1.9422000000     -1.0295000000     -4.2269000000 
  H124          8.0502000000      3.9578000000      0.5398000000 
  H125          9.3140000000      3.1521000000     -1.3670000000 
  H126          8.3445000000      1.3228000000     -2.8607000000 
  H127         -0.3443000000     -7.0846000000     -4.2438000000 
  H128         -0.1100000000     -6.6619000000     -1.8166000000 
  H129          0.2088000000     -2.4329000000     -2.5739000000 
  H130         -0.0006000000     -2.8638000000     -5.0022000000 
  H131         -0.2858000000     -5.1838000000     -5.8465000000 
  H132          0.2718000000     -5.2794000000     -0.0084000000 
  H133          1.7773000000     -1.0500000000      2.1664000000 
  H134          0.6527000000     -0.0926000000      4.1837000000 
  H135         -0.3567000000     -1.6760000000      5.8598000000 
  H136         -0.2528000000     -4.1303000000      5.4014000000 
  H137         -1.3496000000     -2.0237000000      1.2758000000 
  H138         -2.3184000000     -3.5613000000      3.0803000000 
  H139         -3.2040000000     -5.8337000000      1.8771000000 
  H140         -2.5820000000     -5.5697000000     -0.7455000000 
  H141         -1.6377000000     -2.9981000000     -0.9716000000 
   
  principal moments of inertia:
        amu*angstrom^2:    17714.35714    21994.15447    27741.09679
                g*cm^2: 2.94153784E-36 3.65221482E-36 4.60651692E-36
   
  rotational constants:
               cm^(-1):      0.00095164      0.00076646      0.00060768
                   GHz:      0.02852935      0.02297788      0.01821770
   
  Molecular weight:    1177.32 amu
   
  Stoichiometry: Si2C72PN3H56SO6
  Molecular Point Group: C1      
  Point Group used: C1
  
  nuclear repulsion energy.......   17441.277895762 hartrees
 
 Non-default options chosen:
   SCF calculation type: DFT(b3lyp)                  
   DFT=Becke_3_Parameter/HF+Slater+Becke88+VWN+LYP (B3LYP)
   Solvation energy will be computed using PBF
     -solute cavity energy will not be included
     -surface area terms will not be included
   Highest accuracy cutoffs used in SCF
   Solvent: other                                                           
   Internal dielectric constant:    1.000
   Continuum dielectric constant:   2.380
   Solvent probe molecule radius:   2.760
  
 Temporary integer options set:
     73=  2
  
  atom       vdw   vdw2    cov     mass  grid  daf  charge   basis
  C1        1.949  1.900  0.770   12.000    Y    Y      Y    6-31g**
  C2        1.949  1.900  0.770   12.000    Y    Y      Y    6-31g**
  C3        1.949  1.900  0.770   12.000    Y    Y      Y    6-31g**
  C4        1.949  1.900  0.770   12.000    Y    Y      Y    6-31g**
  C5        1.949  1.900  0.770   12.000    Y    Y      Y    6-31g**
  C6        1.949  1.900  0.770   12.000    Y    Y      Y    6-31g**
  C7        1.949  1.900  0.770   12.000    Y    Y      Y    6-31g**
  C8        1.949  1.900  0.770   12.000    Y    Y      Y    6-31g**
  C9        1.949  1.900  0.770   12.000    Y    Y      Y    6-31g**
  C10       1.949  1.900  0.770   12.000    Y    Y      Y    6-31g**
  C11       1.949  1.900  0.770   12.000    Y    Y      Y    6-31g**
  O12       1.702  1.600  0.730   15.995    Y    Y      Y    6-31g**
  Si13      2.217  2.147  1.110   27.977    Y    Y      Y    6-31g**
  C14       1.949  1.900  0.770   12.000    Y    Y      Y    6-31g**
  C15       1.949  1.900  0.770   12.000    Y    Y      Y    6-31g**
  C16       1.949  1.900  0.770   12.000    Y    Y      Y    6-31g**
  C17       1.949  1.900  0.770   12.000    Y    Y      Y    6-31g**
  C18       1.949  1.900  0.770   12.000    Y    Y      Y    6-31g**
  C19       1.949  1.900  0.770   12.000    Y    Y      Y    6-31g**
  C20       1.949  1.900  0.770   12.000    Y    Y      Y    6-31g**
  Si21      2.217  2.147  1.110   27.977    Y    Y      Y    6-31g**
  O22       1.702  1.600  0.730   15.995    Y    Y      Y    6-31g**
  C23       1.949  1.900  0.770   12.000    Y    Y      Y    6-31g**
  C24       1.949  1.900  0.770   12.000    Y    Y      Y    6-31g**
  P25       2.147  2.074  1.060   30.974    Y    Y      Y    6-31g**
  O26       1.702  1.600  0.730   15.995    Y    Y      Y    6-31g**
  O27       1.702  1.600  0.730   15.995    Y    Y      Y    6-31g**
  C28       1.949  1.900  0.770   12.000    Y    Y      Y    6-31g**
  C29       1.949  1.900  0.770   12.000    Y    Y      Y    6-31g**
  C30       1.949  1.900  0.770   12.000    Y    Y      Y    6-31g**
  C31       1.949  1.900  0.770   12.000    Y    Y      Y    6-31g**
  C32       1.949  1.900  0.770   12.000    Y    Y      Y    6-31g**
  C33       1.949  1.900  0.770   12.000    Y    Y      Y    6-31g**
  C34       1.949  1.900  0.770   12.000    Y    Y      Y    6-31g**
  C35       1.949  1.900  0.770   12.000    Y    Y      Y    6-31g**
  C36       1.949  1.900  0.770   12.000    Y    Y      Y    6-31g**
  C37       1.949  1.900  0.770   12.000    Y    Y      Y    6-31g**
  C38       1.949  1.900  0.770   12.000    Y    Y      Y    6-31g**
  C39       1.949  1.900  0.770   12.000    Y    Y      Y    6-31g**
  C40       1.949  1.900  0.770   12.000    Y    Y      Y    6-31g**
  C41       1.949  1.900  0.770   12.000    Y    Y      Y    6-31g**
  C42       1.949  1.900  0.770   12.000    Y    Y      Y    6-31g**
  C43       1.949  1.900  0.770   12.000    Y    Y      Y    6-31g**
  C44       1.949  1.900  0.770   12.000    Y    Y      Y    6-31g**
  C45       1.949  1.900  0.770   12.000    Y    Y      Y    6-31g**
  C46       1.949  1.900  0.770   12.000    Y    Y      Y    6-31g**
  C47       1.949  1.900  0.770   12.000    Y    Y      Y    6-31g**
  C48       1.949  1.900  0.770   12.000    Y    Y      Y    6-31g**
  C49       1.949  1.900  0.770   12.000    Y    Y      Y    6-31g**
  C50       1.949  1.900  0.770   12.000    Y    Y      Y    6-31g**
  C51       1.949  1.900  0.770   12.000    Y    Y      Y    6-31g**
  C52       1.949  1.900  0.770   12.000    Y    Y      Y    6-31g**
  C53       1.949  1.900  0.770   12.000    Y    Y      Y    6-31g**
  C54       1.949  1.900  0.770   12.000    Y    Y      Y    6-31g**
  C55       1.949  1.900  0.770   12.000    Y    Y      Y    6-31g**
  C56       1.949  1.900  0.770   12.000    Y    Y      Y    6-31g**
  C57       1.949  1.900  0.770   12.000    Y    Y      Y    6-31g**
  C58       1.949  1.900  0.770   12.000    Y    Y      Y    6-31g**
  C59       1.949  1.900  0.770   12.000    Y    Y      Y    6-31g**
  C60       1.949  1.900  0.770   12.000    Y    Y      Y    6-31g**
  C61       1.949  1.900  0.770   12.000    Y    Y      Y    6-31g**
  C62       1.949  1.900  0.770   12.000    Y    Y      Y    6-31g**
  C63       1.949  1.900  0.770   12.000    Y    Y      Y    6-31g**
  C64       1.949  1.900  0.770   12.000    Y    Y      Y    6-31g**
  C65       1.949  1.900  0.770   12.000    Y    Y      Y    6-31g**
  C66       1.949  1.900  0.770   12.000    Y    Y      Y    6-31g**
  C67       1.949  1.900  0.770   12.000    Y    Y      Y    6-31g**
  C68       1.949  1.900  0.770   12.000    Y    Y      Y    6-31g**
  C69       1.949  1.900  0.770   12.000    Y    Y      Y    6-31g**
  C70       1.949  1.900  0.770   12.000    Y    Y      Y    6-31g**
  N71       1.831  1.600  0.750   14.003    Y    Y      Y    6-31g**
  S72       2.070  1.900  1.020   31.972    Y    Y      Y    6-31g**
  O73       1.702  1.600  0.730   15.995    Y    Y      Y    6-31g**
  O74       1.702  1.600  0.730   15.995    Y    Y      Y    6-31g**
  C75       1.949  1.900  0.770   12.000    Y    Y      Y    6-31g**
  C76       1.949  1.900  0.770   12.000    Y    Y      Y    6-31g**
  C77       1.949  1.900  0.770   12.000    Y    Y      Y    6-31g**
  C78       1.949  1.900  0.770   12.000    Y    Y      Y    6-31g**
  C79       1.949  1.900  0.770   12.000    Y    Y      Y    6-31g**
  N80       1.831  1.600  0.750   14.003    Y    Y      Y    6-31g**
  N81       1.831  1.600  0.750   14.003    Y    Y      Y    6-31g**
  C82       1.949  1.900  0.770   12.000    Y    Y      Y    6-31g**
  C83       1.949  1.900  0.770   12.000    Y    Y      Y    6-31g**
  C84       1.949  1.900  0.770   12.000    Y    Y      Y    6-31g**
  C85       1.949  1.900  0.770   12.000    Y    Y      Y    6-31g**
  H86       1.597  1.150  0.320    1.008    Y    Y      Y    6-31g**
  H87       1.597  1.150  0.320    1.008    Y    Y      Y    6-31g**
  H88       1.597  1.150  0.320    1.008    Y    Y      Y    6-31g**
  H89       1.597  1.150  0.320    1.008    Y    Y      Y    6-31g**
  H90       1.597  1.150  0.320    1.008    Y    Y      Y    6-31g**
  H91       1.597  1.150  0.320    1.008    Y    Y      Y    6-31g**
  H92       1.597  1.150  0.320    1.008    Y    Y      Y    6-31g**
  H93       1.597  1.150  0.320    1.008    Y    Y      Y    6-31g**
  H94       1.597  1.150  0.320    1.008    Y    Y      Y    6-31g**
  H95       1.597  1.150  0.320    1.008    Y    Y      Y    6-31g**
  H96       1.597  1.150  0.320    1.008    Y    Y      Y    6-31g**
  H97       1.597  1.150  0.320    1.008    Y    Y      Y    6-31g**
  H98       1.597  1.150  0.320    1.008    Y    Y      Y    6-31g**
  H99       1.597  1.150  0.320    1.008    Y    Y      Y    6-31g**
  H100      1.597  1.150  0.320    1.008    Y    Y      Y    6-31g**
  H101      1.597  1.150  0.320    1.008    Y    Y      Y    6-31g**
  H102      1.597  1.150  0.320    1.008    Y    Y      Y    6-31g**
  H103      1.597  1.150  0.320    1.008    Y    Y      Y    6-31g**
  H104      1.597  1.150  0.320    1.008    Y    Y      Y    6-31g**
  H105      1.597  1.150  0.320    1.008    Y    Y      Y    6-31g**
  H106      1.597  1.150  0.320    1.008    Y    Y      Y    6-31g**
  H107      1.597  1.150  0.320    1.008    Y    Y      Y    6-31g**
  H108      1.597  1.150  0.320    1.008    Y    Y      Y    6-31g**
  H109      1.597  1.150  0.320    1.008    Y    Y      Y    6-31g**
  H110      1.597  1.150  0.320    1.008    Y    Y      Y    6-31g**
  H111      1.597  1.150  0.320    1.008    Y    Y      Y    6-31g**
  H112      1.597  1.150  0.320    1.008    Y    Y      Y    6-31g**
  H113      1.597  1.150  0.320    1.008    Y    Y      Y    6-31g**
  H114      1.597  1.150  0.320    1.008    Y    Y      Y    6-31g**
  H115      1.597  1.150  0.320    1.008    Y    Y      Y    6-31g**
  H116      1.597  1.150  0.320    1.008    Y    Y      Y    6-31g**
  H117      1.597  1.150  0.320    1.008    Y    Y      Y    6-31g**
  H118      1.597  1.150  0.320    1.008    Y    Y      Y    6-31g**
  H119      1.597  1.150  0.320    1.008    Y    Y      Y    6-31g**
  H120      1.597  1.150  0.320    1.008    Y    Y      Y    6-31g**
  H121      1.597  1.150  0.320    1.008    Y    Y      Y    6-31g**
  H122      1.597  1.150  0.320    1.008    Y    Y      Y    6-31g**
  H123      1.597  1.150  0.320    1.008    Y    Y      Y    6-31g**
  H124      1.597  1.150  0.320    1.008    Y    Y      Y    6-31g**
  H125      1.597  1.150  0.320    1.008    Y    Y      Y    6-31g**
  H126      1.597  1.150  0.320    1.008    Y    Y      Y    6-31g**
  H127      1.597  1.150  0.320    1.008    Y    Y      Y    6-31g**
  H128      1.597  1.150  0.320    1.008    Y    Y      Y    6-31g**
  H129      1.597  1.150  0.320    1.008    Y    Y      Y    6-31g**
  H130      1.597  1.150  0.320    1.008    Y    Y      Y    6-31g**
  H131      1.597  1.150  0.320    1.008    Y    Y      Y    6-31g**
  H132      1.597  1.150  0.320    1.008    Y    Y      Y    6-31g**
  H133      1.597  1.150  0.320    1.008    Y    Y      Y    6-31g**
  H134      1.597  1.150  0.320    1.008    Y    Y      Y    6-31g**
  H135      1.597  1.150  0.320    1.008    Y    Y      Y    6-31g**
  H136      1.597  1.150  0.320    1.008    Y    Y      Y    6-31g**
  H137      1.597  1.150  0.320    1.008    Y    Y      Y    6-31g**
  H138      1.597  1.150  0.320    1.008    Y    Y      Y    6-31g**
  H139      1.597  1.150  0.320    1.008    Y    Y      Y    6-31g**
  H140      1.597  1.150  0.320    1.008    Y    Y      Y    6-31g**
  H141      1.597  1.150  0.320    1.008    Y    Y      Y    6-31g**
  
  Peak memory usage:    526 Mb
  
  end of program pre
   
 Time(pre)  user:        0.0  user+sys:        0.0  wallclock:        0.4
  
  start of program onee
  
  smallest eigenvalue of S:    2.213E-04
  number of canonical orbitals.....         1564
  Peak memory usage:    700 Mb
  
  end of program onee
   
 Time(onee)  user:       21.0  user+sys:       22.0  wallclock:       24.0
  
  start of program hfig
  
  initial wavefunction generated automatically from atomic wavefunctions
 
  Irreducible     Total no   No of occupied orbitals 
  representation  orbitals   Shell_1  Shell_2    ...
  No Symm         1564        308
  ------------------------
  Orbital occupation/shell    1.000
 
  Peak memory usage:    639 Mb
  
  end of program hfig
   
 Time(hfig)  user:       28.0  user+sys:       28.0  wallclock:       29.7
  
  start of program probe
  
  Peak memory usage:    633 Mb
  
  end of program probe
   
 Time(probe)  user:       22.0  user+sys:       22.0  wallclock:       23.5
  
  start of program grid
  
  
   grid     grid set  grid #  grid sym
  ------    --------  ------  --------
  coarse        0        0        1
  medium        2        1        1
  fine          0        0        1
  ultrafine     4        2        1
  charge       -1        3        1
  gradient      4        2        1
  density       0        0        1
  DFT-fine    -13        4        1
  DFT-med.    -13        4        1
  DFT-grad    -13        4        1
  DFT-der2      0        0        1
  DFT-cphf      0        0        1
  LMP2-enrg     4        2        1
  LMP2-grad     2        1        1
  DFT-cphf2     0        0        1
  PBF-dens      0        0        1
  plotting      0        0        1
  
   
  number of gridpoints: 
     atom        C1       C2       C3       C4       C5       C6       C7
  grid # 1       97      100       94      101      100       96       92
  grid # 2      337      360      336      367      356      336      335
  grid # 3       32       26       42       43       15       46       17
  grid # 4    14816    14816    14816    14816    14816    14816    14816
   
  number of gridpoints: 
     atom        C8       C9      C10      C11      O12     Si13      C14
  grid # 1       94       97      100      100      112      478      102
  grid # 2      335      357      357      354      436      478      359
  grid # 3       48       19       12        9       53        9       29
  grid # 4    14816    14816    14816    14816    23902    22912    14816
   
  number of gridpoints: 
     atom       C15      C16      C17      C18      C19      C20     Si21
  grid # 1       97      101       97       94       98      100      483
  grid # 2      356      366      338      334      340      359      483
  grid # 3       11       44       32       26       47       12       10
  grid # 4    14816    14816    14816    14816    14816    14816    22912
   
  number of gridpoints: 
     atom       O22      C23      C24      P25      O26      O27      C28
  grid # 1      112       95       94      442      116      114       99
  grid # 2      434      338      338      442      444      440      358
  grid # 3       30       42       47        8       41       30       11
  grid # 4    23902    14816    14816    23204    23902    23902    14816
   
  number of gridpoints: 
     atom       C29      C30      C31      C32      C33      C34      C35
  grid # 1      102      101      100      100      100       92       95
  grid # 2      360      360      358      359      357      333      328
  grid # 3       21       21        9       12       12       18       10
  grid # 4    14816    14816    14816    14816    14816    14816    14816
   
  number of gridpoints: 
     atom       C36      C37      C38      C39      C40      C41      C42
  grid # 1       93       96       94       97       93       96       93
  grid # 2      336      339      334      337      333      333      330
  grid # 3       32       29       24       25       13       20        9
  grid # 4    14816    14816    14816    14816    14816    14816    14816
   
  number of gridpoints: 
     atom       C43      C44      C45      C46      C47      C48      C49
  grid # 1       96       92       96       93       93       92       94
  grid # 2      335      335      339      332      332      334      336
  grid # 3       13       21       30       27       27       24       44
  grid # 4    14816    14816    14816    14816    14816    14816    14816
   
  number of gridpoints: 
     atom       C50      C51      C52      C53      C54      C55      C56
  grid # 1       94       94       93       93       93       93       94
  grid # 2      336      337      336      335      335      330      334
  grid # 3       47       43       37       33       30       24       32
  grid # 4    14816    14816    14816    14816    14816    14816    14816
   
  number of gridpoints: 
     atom       C57      C58      C59      C60      C61      C62      C63
  grid # 1       94       92       93       93       93       94       94
  grid # 2      334      333      332      332      335      335      336
  grid # 3       32       21       25       22       38       43       41
  grid # 4    14816    14816    14816    14816    14816    14816    14816
   
  number of gridpoints: 
     atom       C64      C65      C66      C67      C68      C69      C70
  grid # 1       96       96      100       95       95       95       91
  grid # 2      332      335      363      329      327      331      325
  grid # 3       34       27       22        9       12       29        6
  grid # 4    14816    14816    14816    14816    14816    14816    14816
   
  number of gridpoints: 
     atom       N71      S72      O73      O74      C75      C76      C77
  grid # 1      100      448      123      119       97       95       95
  grid # 2      350      448      501      479      359      324      327
  grid # 3       17       19      272      121       26       16       23
  grid # 4    15000    32664    23902    23902    14816    14816    14816
   
  number of gridpoints: 
     atom       C78      C79      N80      N81      C82      C83      C84
  grid # 1       95       96      112       96       94       93       93
  grid # 2      329      335      424      348      328      330      329
  grid # 3       27       25      107       16       15       19       14
  grid # 4    14816    14816    15000    15000    14816    14816    14816
   
  number of gridpoints: 
     atom       C85      H86      H87      H88      H89      H90      H91
  grid # 1       91      111      118      118      112      118      112
  grid # 2      323      434      452      446      429      453      434
  grid # 3        7      244      418      360      205      423      235
  grid # 4    14816    16416    16416    16416    16416    16416    16416
   
  number of gridpoints: 
     atom       H92      H93      H94      H95      H96      H97      H98
  grid # 1      109      118      118      118      102      110      112
  grid # 2      426      442      449      450      395      428      427
  grid # 3      188      361      411      418       62      171      227
  grid # 4    16416    16416    16416    16416    16416    16416    16416
   
  number of gridpoints: 
     atom       H99     H100     H101     H102     H103     H104     H105
  grid # 1      109      111      109      107      111      108      109
  grid # 2      427      430      425      415      426      424      419
  grid # 3      209      215      172      124      178      213      151
  grid # 4    16416    16416    16416    16416    16416    16416    16416
   
  number of gridpoints: 
     atom      H106     H107     H108     H109     H110     H111     H112
  grid # 1      111      111      112      115      117      117      118
  grid # 2      427      437      433      443      448      451      452
  grid # 3      201      264      244      301      374      387      421
  grid # 4    16416    16416    16416    16416    16416    16416    16416
   
  number of gridpoints: 
     atom      H113     H114     H115     H116     H117     H118     H119
  grid # 1      118      118      117      114      113      116      117
  grid # 2      453      453      451      438      437      443      452
  grid # 3      424      423      396      291      271      315      395
  grid # 4    16416    16416    16416    16416    16416    16416    16416
   
  number of gridpoints: 
     atom      H120     H121     H122     H123     H124     H125     H126
  grid # 1      117      117      115      114      118      118      118
  grid # 2      451      449      442      440      452      453      453
  grid # 3      403      378      314      265      414      423      424
  grid # 4    16416    16416    16416    16416    16416    16416    16416
   
  number of gridpoints: 
     atom      H127     H128     H129     H130     H131     H132     H133
  grid # 1      118      112      102      111      118      105      104
  grid # 2      451      437      407      429      449      414      406
  grid # 3      418      292       65      192      400      129       63
  grid # 4    16416    16416    16416    16416    16416    16416    16416
   
  number of gridpoints: 
     atom      H134     H135     H136     H137     H138     H139     H140
  grid # 1      113      117      117      101      108      117      114
  grid # 2      435      451      453      396      430      458      446
  grid # 3      234      379      416       71      173      422      291
  grid # 4    16416    16416    16416    16416    16416    16416    16416
   
  number of gridpoints: 
     atom      H141    total
  grid # 1      104    16067
  grid # 2      410    54630
  grid # 3       53    18474
  grid # 4    16416  2276152
   
  Peak memory usage:    666 Mb
  
  end of program grid
   
 Time(grid)  user:      346.0  user+sys:      347.0  wallclock:      383.7
  
  start of program rwr
  
  Peak memory usage:    648 Mb
  
  end of program rwr
   
 Time(rwr)  user:       63.0  user+sys:       68.0  wallclock:       78.6
  
  start of program scf
  
 number of electrons..........        616
 number of alpha electrons....        308
 number of beta electrons.....        308
 number of orbitals, total....       1564
 number of doubly-occ'd orbs..        308
 number of open shell orbs....          0
 number of occupied orbitals..        308
 number of virtual orbitals...       1256
 number of hamiltonians.......          1
 number of shells.............          1
 SCF type: DFT=Becke_3_Parameter/HF+Slater+Becke88+VWN+LYP (B3LYP)
  
       i  u  d  i  g                   
       t  p  i  c  r                                 RMS    maximum
       e  d  i  u  i                       energy  density   DIIS  
       r  t  s  t  d       total energy    change  change    error 
  
etot    1  N  N  1  U   -4700.92533715312           2.7E-03  1.6E-01
etot    2  N  Y  1  U   -4702.05074068669  1.1E+00  4.4E-03  2.0E-01
etot    3  N  Y  1  U   -4660.68334521966 -4.1E+01  7.8E-03  2.1E-01
etot    4  N  Y  1  U   -4680.52853407670  2.0E+01  7.0E-03  1.2E-01
etot    5  N  Y  1  U   -4710.96855429224  3.0E+01  1.0E-03  5.0E-02
etot    6  N  Y  1  U   -4710.85056482259 -1.2E-01  6.4E-04  2.9E-02
etot    7  N  Y  1  U   -4711.45874543040  6.1E-01  2.0E-04  8.9E-03
etot    8  N  Y  1  U   -4711.48916918000  3.0E-02  1.1E-04  6.0E-03
etot    9  N  Y  1  U   -4711.50718313139  1.8E-02  6.3E-05  3.5E-03
etot   10  N  Y  1  U   -4711.51209048164  4.9E-03  4.2E-05  1.6E-03
etot   11  N  Y  1  U   -4711.51392325521  1.8E-03  1.8E-05  8.6E-04
etot   12  N  Y  1  U   -4711.51434962388  4.3E-04  6.2E-06  2.2E-04
etot   13  N  N  1  U   -4711.51438662278  3.7E-05  0.0E+00  0.0E+00
  
  
 Energy components, in hartrees:
   (A)  Nuclear repulsion............   17441.27789576190
   (E)  Total one-electron terms.....  -41224.20183975760
   (F)    Electron-nuclear...........  -45898.53829098531
   (H)    Kinetic....................    4674.33645122772
   (I)  Total two-electron terms.....   19071.40955737291
   (J)    Coulomb....................   19646.51065002609
   (K)    Exchange+Correlation.......    -575.10109265318
   (L)  Electronic energy............  -22152.79228238468  (E+I)
   (M)  -V/T.........................       2.00795362845  (-(A+F+I)/H)
   (N)  Total energy.................   -4711.51438662278  (A+L)
  
 SCFE: SCF energy: DFT(b3lyp)     -4711.51438662278 hartrees   iterations:  13
  
 
 HOMO energy:    -0.20230
 LUMO energy:    -0.09180
 
  Orbital energies (hartrees): 
   -89.11448   -77.21581   -66.11545   -66.10745   -19.18112   -19.17817
   -19.15182   -19.14581   -19.09759   -19.09383   -14.38164   -14.38064
   -14.35435   -10.28692   -10.25873   -10.25328   -10.24911   -10.24369
   -10.24017   -10.22873   -10.21825   -10.21696   -10.21568   -10.21353
   -10.21089   -10.20934   -10.20535   -10.20418   -10.20403   -10.20143
   -10.20005   -10.20005   -10.19766   -10.19763   -10.19700   -10.19559
   -10.19514   -10.19417   -10.19339   -10.19292   -10.19163   -10.19132
   -10.18976   -10.18944   -10.18845   -10.18844   -10.18837   -10.18828
   -10.18813   -10.18768   -10.18728   -10.18681   -10.18636   -10.18597
   -10.18559   -10.18530   -10.18440   -10.18422   -10.18419   -10.18307
   -10.18305   -10.18269   -10.18264   -10.18201   -10.18139   -10.18108
   -10.17978   -10.17976   -10.17950   -10.17911   -10.17823   -10.17782
   -10.17669   -10.17469   -10.17357   -10.17343   -10.17161   -10.17146
   -10.17050   -10.16992   -10.16881   -10.16871   -10.16598   -10.16358
   -10.15790    -8.14043    -6.66018    -6.10577    -6.10438    -6.10305
    -5.26181    -5.25369    -4.82522    -4.82370    -4.82156    -3.62081
    -3.62041    -3.62021    -3.61289    -3.61235    -3.61187    -1.11655
    -1.08766    -1.04618    -1.00896    -0.99152    -0.96915    -0.96603
    -0.94877    -0.92357    -0.87221    -0.86758    -0.85861    -0.84546
    -0.83931    -0.83549    -0.83520    -0.83211    -0.82464    -0.81771
    -0.81643    -0.80576    -0.79495    -0.78989    -0.78721    -0.77875
    -0.75722    -0.75387    -0.74906    -0.74520    -0.74279    -0.74043
    -0.73968    -0.73657    -0.73473    -0.73392    -0.73348    -0.73194
    -0.73032    -0.73022    -0.72794    -0.72617    -0.72323    -0.72098
    -0.70517    -0.70346    -0.66726    -0.64761    -0.64396    -0.62750
    -0.61942    -0.61379    -0.61170    -0.61088    -0.60374    -0.60250
    -0.59928    -0.59581    -0.59509    -0.59228    -0.58969    -0.58890
    -0.58701    -0.58607    -0.58565    -0.58302    -0.58096    -0.57735
    -0.57670    -0.57371    -0.57045    -0.56667    -0.56218    -0.55994
    -0.54065    -0.53725    -0.53218    -0.52307    -0.51937    -0.51757
    -0.50903    -0.50483    -0.50398    -0.50283    -0.49991    -0.49706
    -0.49450    -0.49387    -0.48875    -0.48570    -0.47391    -0.47246
    -0.47054    -0.46428    -0.46214    -0.46088    -0.45662    -0.45331
    -0.45326    -0.45051    -0.44894    -0.44618    -0.44502    -0.44357
    -0.44282    -0.44209    -0.44044    -0.43677    -0.43550    -0.43476
    -0.43401    -0.43242    -0.43101    -0.42963    -0.42831    -0.42635
    -0.42595    -0.42347    -0.42268    -0.42241    -0.42088    -0.41910
    -0.41787    -0.41664    -0.41590    -0.41508    -0.41320    -0.41081
    -0.40992    -0.40916    -0.40798    -0.40243    -0.40180    -0.40001
    -0.39443    -0.39286    -0.38876    -0.38593    -0.38241    -0.38138
    -0.37992    -0.37792    -0.37503    -0.36971    -0.36684    -0.36410
    -0.36175    -0.35902    -0.35696    -0.35313    -0.35207    -0.35132
    -0.35031    -0.34741    -0.34566    -0.34491    -0.34271    -0.34095
    -0.34067    -0.33909    -0.33718    -0.33539    -0.33126    -0.33002
    -0.32818    -0.32594    -0.32354    -0.32071    -0.32030    -0.31726
    -0.31624    -0.31095    -0.30864    -0.30681    -0.30276    -0.29820
    -0.29288    -0.29202    -0.29038    -0.28901    -0.28569    -0.28251
    -0.28164    -0.27746    -0.27407    -0.27131    -0.26979    -0.26652
    -0.26339    -0.26001    -0.25813    -0.25337    -0.24878    -0.24763
    -0.24633    -0.24580    -0.24307    -0.24162    -0.23842    -0.23637
    -0.23332    -0.23287    -0.23209    -0.22997    -0.22698    -0.22475
    -0.21958    -0.20230    -0.09180    -0.04503    -0.04308    -0.03235
    -0.02988    -0.01803    -0.01606    -0.01467    -0.01311    -0.01079
 
  Peak memory usage:    843 Mb
  
  end of program scf
   
 Time(scf)  user:     8631.0  user+sys:     8728.0  wallclock:    18188.3
  
  start of program ch
  
  gridpoints used for charge fit        16018
    out of a possible maximum of        18474
  
   Electrostatic potential fitting constrained to reproduce
     total charge:                yes
     dipole moment:               no 
     traceless quadrupole moment: no 
     traceless octapole moment:   no 
  
  Atomic charges from electrostatic potential: 
   
 Atom       C1           C2           C3           C4           C5      
 Charge   -0.06970     -0.04681     -0.19462      0.21922      0.07892
   
 Atom       C6           C7           C8           C9           C10     
 Charge   -0.23830     -0.35565     -0.06823      0.07724     -0.12569
   
 Atom       C11          O12          Si13         C14          C15     
 Charge    0.05510     -0.27622      0.06245      0.06817      0.09486
   
 Atom       C16          C17          C18          C19          C20     
 Charge    0.24364     -0.15011     -0.44163     -0.22779      0.13417
   
 Atom       Si21         O22          C23          C24          P25     
 Charge   -0.06380     -0.30085     -0.14547     -0.09765      1.00089
   
 Atom       O26          O27          C28          C29          C30     
 Charge   -0.72059     -0.58803      0.07885     -0.03384      0.05077
   
 Atom       C31          C32          C33          C34          C35     
 Charge   -0.00250      0.21201      0.16508     -0.14154     -0.01580
   
 Atom       C36          C37          C38          C39          C40     
 Charge   -0.06865     -0.06075     -0.22427     -0.05194     -0.00564
   
 Atom       C41          C42          C43          C44          C45     
 Charge   -0.12074     -0.15130     -0.16983     -0.15479     -0.23200
   
 Atom       C46          C47          C48          C49          C50     
 Charge   -0.17117     -0.07616     -0.18598     -0.14830     -0.09705
   
 Atom       C51          C52          C53          C54          C55     
 Charge   -0.15642     -0.08239     -0.12594     -0.11049     -0.20352
   
 Atom       C56          C57          C58          C59          C60     
 Charge   -0.07806     -0.15163     -0.15173     -0.11772     -0.13428
   
 Atom       C61          C62          C63          C64          C65     
 Charge   -0.12203     -0.14851     -0.07593     -0.16004     -0.11624
   
 Atom       C66          C67          C68          C69          C70     
 Charge    0.01442      0.11287     -0.13115     -0.11269     -0.04039
   
 Atom       N71          S72          O73          O74          C75     
 Charge   -0.22785      0.76948     -0.43548     -0.45297      0.57554
   
 Atom       C76          C77          C78          C79          N80     
 Charge   -0.46870      0.37595     -0.58648      0.50824     -0.69260
   
 Atom       N81          C82          C83          C84          C85     
 Charge   -0.13355      0.20398     -0.43671      0.05449     -0.15960
   
 Atom       H86          H87          H88          H89          H90     
 Charge    0.10417      0.13616      0.13611      0.17249      0.11332
   
 Atom       H91          H92          H93          H94          H95     
 Charge    0.11316      0.19344      0.13429      0.12669      0.11578
   
 Atom       H96          H97          H98          H99          H100    
 Charge    0.25447      0.13901      0.07905      0.09231      0.06307
   
 Atom       H101         H102         H103         H104         H105    
 Charge    0.15938      0.03616      0.07590      0.12215      0.12857
   
 Atom       H106         H107         H108         H109         H110    
 Charge    0.10975      0.10655      0.11703      0.12134      0.10712
   
 Atom       H111         H112         H113         H114         H115    
 Charge    0.12112      0.11864      0.11353      0.12368      0.11013
   
 Atom       H116         H117         H118         H119         H120    
 Charge    0.10538      0.08549      0.11846      0.10627      0.12861
   
 Atom       H121         H122         H123         H124         H125    
 Charge    0.12394      0.10221      0.10996      0.11889      0.12160
   
 Atom       H126         H127         H128         H129         H130    
 Charge    0.11179      0.13486      0.12263      0.06922      0.10874
   
 Atom       H131         H132         H133         H134         H135    
 Charge    0.12412      0.15126      0.16549      0.05521      0.19732
   
 Atom       H136         H137         H138         H139         H140    
 Charge    0.02216      0.34689      0.05909      0.20417      0.09811
   
 Atom       H141    
 Charge    0.14365
  
  sum of atomic charges:     0.000000
   
 RMS Error   9.19E-04 hartrees
 
  Peak memory usage:    584 Mb
  
  end of program ch
   
 Time(ch)  user:       18.0  user+sys:       19.0  wallclock:       49.5
  
  start of program post
  
  Writing input files for PBF
  Peak memory usage:    534 Mb
  
  end of program post
   
 Time(post)  user:        0.0  user+sys:        0.0  wallclock:        0.6

  start of program pbf

Pbf Version 4.00

Molecular surface area:      793.60787   [A2]
Reaction field energy:       -13.94494   [kT]
  Peak memory usage: 557 Mb

  end of program pbf

 Time(pbf)  user:       16.3  user+sys:       16.3  wallclock:       45.4
  
  start of program solv
  
   number of surface charges from PBF   13320
   sum of surface charges     -0.00025
   
  nuclear repulsion energy.......   17441.277895762 hartrees
  Peak memory usage:    694 Mb
  
  end of program solv
   
 Time(solv)  user:       36.0  user+sys:       36.0  wallclock:       83.7
  
  start of program scf
  
  
       i  u  d  i  g                   
       t  p  i  c  r                                 RMS    maximum
       e  d  i  u  i                       energy  density   DIIS  
       r  t  s  t  d       total energy    change  change    error 
  
etot    1  N  N  1  U   -4711.54388179182           6.6E-05  1.5E-03
etot    2  N  Y  1  U   -4711.54402076011  1.4E-04  2.6E-05  1.7E-03
etot    3  N  Y  1  U   -4711.54477284753  7.5E-04  8.4E-06  5.4E-04
etot    4  N  Y  1  U   -4711.54485971161  8.7E-05  3.6E-06  1.7E-04
etot    5  N  N  1  U   -4711.54487256939  1.3E-05  0.0E+00  0.0E+00
  
  
 Energy components, in hartrees:
   (A)  Total zero-electron terms....   17443.14446701022
   (B)    Nuclear-nuclear............   17441.27789576190
   (C)    Nuclear-solvent............       1.86657124832
   (E)  Total one-electron terms.....  -41227.22536546223
   (F)    Electron-nuclear...........  -45899.72226532784
   (G)    Electron-solvent...........      -1.89800109658
   (H)    Kinetic....................    4674.39490096219
   (I)  Total two-electron terms.....   19072.53602588262
   (J)    Coulomb....................   19647.65606363541
   (K)    Exchange+Correlation.......    -575.12003775279
   (L)  Electronic energy............  -22154.68933957961  (E+I)
   (N)  Total quantum mech. energy...   -4711.54487256939  (A+L)
   (O)  Gas phase energy.............   -4711.51438662278
   (P)  Solution phase energy........   -4711.52915764526  (Q+R+S)
   (Q)    Total solute energy........   -4711.51344272113  (N-C-G)
   (R)    Total solvent energy.......      -0.01571492413  (C/2+G/2)
   (S)    Solute cavity energy.......       0.00000000000
   (U)  Reorganization energy........       0.00094390165  (Q-O)
   (V)  Solvation energy.............      -0.01477102248  (P-O)
  
 SCFE:  Solution phase energy: DFT(b3lyp)      -4711.52915764526 hartrees
        SCF iterations:   5
  
 
 HOMO energy:    -0.20455
 LUMO energy:    -0.09152
 
  Orbital energies (hartrees): 
   -89.12107   -77.21694   -66.11675   -66.11038   -19.18201   -19.17961
   -19.15726   -19.15180   -19.09751   -19.09457   -14.38451   -14.37960
   -14.35483   -10.28759   -10.26086   -10.25573   -10.25112   -10.24212
   -10.24040   -10.22826   -10.21857   -10.21537   -10.21512   -10.21451
   -10.20930   -10.20622   -10.20535   -10.20347   -10.20225   -10.20202
   -10.20038   -10.19889   -10.19803   -10.19746   -10.19553   -10.19542
   -10.19509   -10.19387   -10.19341   -10.19171   -10.19086   -10.19057
   -10.18983   -10.18982   -10.18980   -10.18974   -10.18912   -10.18901
   -10.18889   -10.18881   -10.18864   -10.18801   -10.18782   -10.18726
   -10.18709   -10.18682   -10.18602   -10.18569   -10.18563   -10.18482
   -10.18477   -10.18378   -10.18372   -10.18366   -10.18288   -10.18261
   -10.18255   -10.18229   -10.18140   -10.18107   -10.18101   -10.17962
   -10.17795   -10.17611   -10.17603   -10.17484   -10.17401   -10.17320
   -10.17298   -10.17268   -10.17129   -10.16982   -10.16820   -10.16673
   -10.16055    -8.14686    -6.66131    -6.11216    -6.11093    -6.10946
    -5.26306    -5.25657    -4.82635    -4.82483    -4.82268    -3.62205
    -3.62167    -3.62147    -3.61577    -3.61525    -3.61475    -1.12302
    -1.08908    -1.04769    -1.01577    -0.99079    -0.97000    -0.96740
    -0.95108    -0.92437    -0.87388    -0.86554    -0.86047    -0.84507
    -0.84075    -0.83819    -0.83650    -0.83469    -0.82747    -0.81821
    -0.81782    -0.80764    -0.79514    -0.78940    -0.78907    -0.77763
    -0.75536    -0.75466    -0.74928    -0.74524    -0.74481    -0.74107
    -0.73953    -0.73681    -0.73671    -0.73583    -0.73515    -0.73338
    -0.73226    -0.73126    -0.72943    -0.72845    -0.72589    -0.72368
    -0.70655    -0.70529    -0.66789    -0.64794    -0.64552    -0.62745
    -0.62065    -0.61490    -0.61241    -0.61060    -0.60499    -0.60257
    -0.59860    -0.59563    -0.59440    -0.59303    -0.59160    -0.58972
    -0.58941    -0.58743    -0.58438    -0.58330    -0.58133    -0.57970
    -0.57884    -0.57501    -0.57293    -0.56746    -0.56345    -0.56041
    -0.54192    -0.53584    -0.53273    -0.52504    -0.52144    -0.51911
    -0.50845    -0.50561    -0.50544    -0.50417    -0.50124    -0.49851
    -0.49669    -0.49353    -0.48919    -0.48669    -0.47465    -0.47271
    -0.47053    -0.46580    -0.46332    -0.46123    -0.45601    -0.45493
    -0.45274    -0.45163    -0.45038    -0.44633    -0.44531    -0.44504
    -0.44406    -0.44212    -0.44074    -0.43827    -0.43620    -0.43572
    -0.43329    -0.43236    -0.43162    -0.43130    -0.43070    -0.42727
    -0.42704    -0.42465    -0.42320    -0.42254    -0.42165    -0.42062
    -0.41800    -0.41741    -0.41637    -0.41598    -0.41341    -0.41321
    -0.41093    -0.40928    -0.40643    -0.40337    -0.40207    -0.40086
    -0.39492    -0.39285    -0.38965    -0.38640    -0.38441    -0.38302
    -0.37974    -0.37926    -0.37612    -0.37037    -0.36742    -0.36346
    -0.36236    -0.35939    -0.35881    -0.35501    -0.35460    -0.35376
    -0.35111    -0.35001    -0.34726    -0.34574    -0.34514    -0.34254
    -0.34049    -0.33978    -0.33852    -0.33591    -0.33179    -0.33160
    -0.33086    -0.32982    -0.32665    -0.32405    -0.32252    -0.31992
    -0.31821    -0.31426    -0.31255    -0.30923    -0.30437    -0.29961
    -0.29403    -0.29391    -0.29089    -0.28997    -0.28771    -0.28481
    -0.28315    -0.27965    -0.27692    -0.27240    -0.26965    -0.26732
    -0.26189    -0.26065    -0.25801    -0.25302    -0.25001    -0.24926
    -0.24887    -0.24745    -0.24545    -0.24412    -0.24098    -0.23787
    -0.23536    -0.23485    -0.23422    -0.23183    -0.22833    -0.22745
    -0.22131    -0.20455    -0.09152    -0.04649    -0.04533    -0.03291
    -0.03139    -0.01896    -0.01642    -0.01564    -0.01247    -0.01090
 
  Peak memory usage:    839 Mb
  
  end of program scf
   
 Time(scf)  user:     2730.0  user+sys:     2759.0  wallclock:     5248.5
  
  start of program sole
  
    SCRF                   solvation energy
  iteration          Hartrees            kcal/mol
     0               0.0000000            0.0000
     1              -0.0147710           -9.2690
  
  solvation energy not yet converged... 
  
  Peak memory usage:    634 Mb
  
  end of program sole
   
 Time(sole)  user:        0.0  user+sys:        0.0  wallclock:        0.4
  
  start of program ch
  
  gridpoints used for charge fit        16018
    out of a possible maximum of        16018
  
   Electrostatic potential fitting constrained to reproduce
     total charge:                yes
     dipole moment:               no 
     traceless quadrupole moment: no 
     traceless octapole moment:   no 
  
  Atomic charges from electrostatic potential: 
   
 Atom       C1           C2           C3           C4           C5      
 Charge   -0.06925     -0.05044     -0.20332      0.22098      0.09190
   
 Atom       C6           C7           C8           C9           C10     
 Charge   -0.24353     -0.36859     -0.07470      0.05525     -0.13555
   
 Atom       C11          O12          Si13         C14          C15     
 Charge    0.07982     -0.25881      0.04031      0.07047      0.09472
   
 Atom       C16          C17          C18          C19          C20     
 Charge    0.24583     -0.14967     -0.45586     -0.23713      0.14839
   
 Atom       Si21         O22          C23          C24          P25     
 Charge   -0.08973     -0.30040     -0.15511     -0.10222      0.98749
   
 Atom       O26          O27          C28          C29          C30     
 Charge   -0.71521     -0.58734      0.09265     -0.04123      0.06520
   
 Atom       C31          C32          C33          C34          C35     
 Charge    0.00785      0.23073      0.17134     -0.15518     -0.01954
   
 Atom       C36          C37          C38          C39          C40     
 Charge   -0.06799     -0.05428     -0.24762     -0.06183     -0.00943
   
 Atom       C41          C42          C43          C44          C45     
 Charge   -0.13013     -0.15802     -0.17830     -0.15979     -0.23645
   
 Atom       C46          C47          C48          C49          C50     
 Charge   -0.17418     -0.08859     -0.18451     -0.15695     -0.10251
   
 Atom       C51          C52          C53          C54          C55     
 Charge   -0.16855     -0.07708     -0.13950     -0.11401     -0.21173
   
 Atom       C56          C57          C58          C59          C60     
 Charge   -0.08401     -0.15842     -0.15910     -0.12182     -0.14340
   
 Atom       C61          C62          C63          C64          C65     
 Charge   -0.12755     -0.15599     -0.08304     -0.16864     -0.11233
   
 Atom       C66          C67          C68          C69          C70     
 Charge    0.00256      0.12130     -0.13620     -0.11440     -0.05344
   
 Atom       N71          S72          O73          O74          C75     
 Charge   -0.21438      0.77901     -0.46278     -0.46340      0.58448
   
 Atom       C76          C77          C78          C79          N80     
 Charge   -0.46841      0.37578     -0.58024      0.51499     -0.72853
   
 Atom       N81          C82          C83          C84          C85     
 Charge   -0.12263      0.21147     -0.44649      0.05747     -0.17569
   
 Atom       H86          H87          H88          H89          H90     
 Charge    0.10578      0.14343      0.14175      0.17975      0.12065
   
 Atom       H91          H92          H93          H94          H95     
 Charge    0.11454      0.19838      0.14060      0.13468      0.12289
   
 Atom       H96          H97          H98          H99          H100    
 Charge    0.25079      0.14129      0.08101      0.09512      0.06109
   
 Atom       H101         H102         H103         H104         H105    
 Charge    0.16817      0.03981      0.07821      0.12652      0.13166
   
 Atom       H106         H107         H108         H109         H110    
 Charge    0.11237      0.11027      0.11706      0.12747      0.11605
   
 Atom       H111         H112         H113         H114         H115    
 Charge    0.12582      0.12593      0.12076      0.13176      0.11523
   
 Atom       H116         H117         H118         H119         H120    
 Charge    0.11280      0.08942      0.12607      0.11298      0.13465
   
 Atom       H121         H122         H123         H124         H125    
 Charge    0.12896      0.10549      0.11651      0.12600      0.12876
   
 Atom       H126         H127         H128         H129         H130    
 Charge    0.11904      0.14267      0.12807      0.07320      0.11285
   
 Atom       H131         H132         H133         H134         H135    
 Charge    0.13091      0.15732      0.17043      0.05967      0.20556
   
 Atom       H136         H137         H138         H139         H140    
 Charge    0.03126      0.33924      0.06159      0.21226      0.10571
   
 Atom       H141    
 Charge    0.15489
  
  sum of atomic charges:     0.000000
   
 RMS Error   9.30E-04 hartrees
 
  Peak memory usage:    583 Mb
  
  end of program ch
   
 Time(ch)  user:       18.0  user+sys:       19.0  wallclock:       32.7
  
  start of program post
  
  Writing input files for PBF
  Peak memory usage:    534 Mb
  
  end of program post
   
 Time(post)  user:        0.0  user+sys:        0.0  wallclock:        0.4

  start of program pbf

Pbf Version 4.00

Molecular surface area:      793.60787   [A2]
Reaction field energy:       -16.18979   [kT]
  Peak memory usage: 557 Mb

  end of program pbf

 Time(pbf)  user:       17.0  user+sys:       17.0  wallclock:       28.0
  
  start of program solv
  
   number of surface charges from PBF   13320
   sum of surface charges     -0.00027
   
  nuclear repulsion energy.......   17441.277895762 hartrees
  Peak memory usage:    694 Mb
  
  end of program solv
   
 Time(solv)  user:       37.0  user+sys:       37.0  wallclock:       58.3
  
  start of program scf
  
  
       i  u  d  i  g                   
       t  p  i  c  r                                 RMS    maximum
       e  d  i  u  i                       energy  density   DIIS  
       r  t  s  t  d       total energy    change  change    error 
  
etot    1  N  N  1  U   -4711.54725540066           8.7E-06  1.5E-04
etot    2  N  N  1  U   -4711.54723542584 -2.0E-05  0.0E+00  0.0E+00
  
  
 Energy components, in hartrees:
   (A)  Total zero-electron terms....   17443.34582178327
   (B)    Nuclear-nuclear............   17441.27789576190
   (C)    Nuclear-solvent............       2.06792602137
   (E)  Total one-electron terms.....  -41227.72990967584
   (F)    Electron-nuclear...........  -45900.04322908750
   (G)    Electron-solvent...........      -2.10212350225
   (H)    Kinetic....................    4674.41544291391
   (I)  Total two-electron terms.....   19072.83685246673
   (J)    Coulomb....................   19647.96022833458
   (K)    Exchange+Correlation.......    -575.12337586784
   (L)  Electronic energy............  -22154.89305720911  (E+I)
   (N)  Total quantum mech. energy...   -4711.54723542584  (A+L)
   (O)  Gas phase energy.............   -4711.51438662278
   (P)  Solution phase energy........   -4711.53013668540  (Q+R+S)
   (Q)    Total solute energy........   -4711.51303794496  (N-C-G)
   (R)    Total solvent energy.......      -0.01709874044  (C/2+G/2)
   (S)    Solute cavity energy.......       0.00000000000
   (U)  Reorganization energy........       0.00134867782  (Q-O)
   (V)  Solvation energy.............      -0.01575006262  (P-O)
  
 SCFE:  Solution phase energy: DFT(b3lyp)      -4711.53013668540 hartrees
        SCF iterations:   2
  
 
 HOMO energy:    -0.21628
 LUMO energy:    -0.09043
 
  Orbital energies (hartrees): 
   -74.22628   -72.39649   -40.37273   -40.07330   -36.57050   -35.11298
   -24.05868   -20.71270   -17.21369   -15.51766   -14.63079   -14.07722
   -13.89222   -13.72299   -13.63198   -12.45810   -12.23688   -12.18309
   -11.60614   -11.25503   -11.13345   -11.11292   -10.93076   -10.82638
   -10.79853   -10.71136   -10.64237   -10.62070   -10.54906   -10.40320
   -10.40082   -10.38200   -10.34053   -10.31009   -10.30352   -10.27776
   -10.25072   -10.22232   -10.22067   -10.21790   -10.21715   -10.20170
   -10.19509   -10.19302   -10.18534   -10.18478   -10.18466   -10.18006
   -10.17743   -10.17723   -10.17165   -10.16823   -10.16731   -10.16726
   -10.16591   -10.16405   -10.16395   -10.16266   -10.16109   -10.15686
   -10.15635   -10.14817   -10.13459   -10.10514   -10.10299   -10.09922
   -10.08488   -10.07790   -10.07244   -10.04898   -10.02625   -10.02152
   -10.00299    -9.97878    -9.92435    -9.86374    -9.84094    -9.84068
    -9.81513    -9.79266    -9.68080    -9.65388    -9.57525    -9.36794
    -9.25058    -9.02606    -8.62738    -8.60200    -8.51555    -7.89063
    -6.71477    -6.46636    -6.29791    -6.26144    -6.17577    -5.94617
    -5.47586    -4.26176    -3.76393    -3.73347    -3.71844    -0.98074
    -0.97599    -0.94149    -0.88830    -0.88822    -0.87761    -0.86856
    -0.86318    -0.85435    -0.85406    -0.83569    -0.83436    -0.82389
    -0.81224    -0.80538    -0.80329    -0.79846    -0.79800    -0.78991
    -0.78809    -0.77318    -0.76920    -0.76330    -0.74072    -0.73910
    -0.73807    -0.73471    -0.73154    -0.72191    -0.72169    -0.71819
    -0.71758    -0.71657    -0.70617    -0.70048    -0.69365    -0.68982
    -0.68931    -0.68435    -0.68389    -0.67525    -0.67299    -0.67226
    -0.66936    -0.66261    -0.65071    -0.62165    -0.60053    -0.60029
    -0.59570    -0.59485    -0.59085    -0.59073    -0.58734    -0.58276
    -0.57945    -0.57759    -0.56809    -0.56688    -0.56497    -0.55340
    -0.54969    -0.54875    -0.53940    -0.53890    -0.53700    -0.53663
    -0.53430    -0.53132    -0.52879    -0.52807    -0.52686    -0.52642
    -0.52273    -0.52147    -0.52117    -0.51952    -0.51518    -0.51441
    -0.51087    -0.51069    -0.50763    -0.50596    -0.50339    -0.50261
    -0.49780    -0.49771    -0.49222    -0.49005    -0.48997    -0.48954
    -0.48947    -0.48853    -0.48777    -0.48728    -0.48348    -0.48119
    -0.47726    -0.47599    -0.47024    -0.46989    -0.46760    -0.46502
    -0.46342    -0.46179    -0.46103    -0.46045    -0.45642    -0.45642
    -0.45515    -0.45472    -0.45343    -0.45086    -0.45030    -0.44520
    -0.44215    -0.43832    -0.43734    -0.43527    -0.43371    -0.43370
    -0.43287    -0.43229    -0.43183    -0.43094    -0.42810    -0.42746
    -0.42655    -0.42487    -0.42277    -0.42236    -0.42233    -0.42184
    -0.42089    -0.42037    -0.42027    -0.41974    -0.41831    -0.41824
    -0.41435    -0.41367    -0.41314    -0.41243    -0.40750    -0.40387
    -0.40170    -0.40076    -0.40047    -0.39944    -0.39936    -0.39844
    -0.39715    -0.39637    -0.39524    -0.39485    -0.39463    -0.39434
    -0.39434    -0.39155    -0.38721    -0.38709    -0.38465    -0.38424
    -0.38421    -0.38160    -0.38091    -0.37968    -0.37934    -0.37624
    -0.37617    -0.37345    -0.36871    -0.36842    -0.36803    -0.36543
    -0.36234    -0.35628    -0.35517    -0.35214    -0.33855    -0.33655
    -0.33464    -0.33280    -0.33174    -0.33140    -0.32750    -0.31338
    -0.31133    -0.30913    -0.30846    -0.29940    -0.29561    -0.28653
    -0.28011    -0.27608    -0.27510    -0.27093    -0.26859    -0.26286
    -0.26241    -0.26051    -0.25576    -0.25376    -0.24805    -0.24707
    -0.24270    -0.21628    -0.09043    -0.04613    -0.04561    -0.03290
    -0.03165    -0.01882    -0.01659    -0.01544    -0.01197    -0.01104
 
  Peak memory usage:    839 Mb
  
  end of program scf
   
 Time(scf)  user:      715.0  user+sys:      724.0  wallclock:     1142.4
  
  start of program sole
  
    SCRF                   solvation energy
  iteration          Hartrees            kcal/mol
     0               0.0000000            0.0000
     1              -0.0147710           -9.2690
     2              -0.0157501           -9.8833
  
  solvation energy not yet converged... 
  
  Peak memory usage:    634 Mb
  
  end of program sole
   
 Time(sole)  user:        0.0  user+sys:        0.0  wallclock:        0.3
  
  start of program ch
  
  gridpoints used for charge fit        16018
    out of a possible maximum of        16018
  
   Electrostatic potential fitting constrained to reproduce
     total charge:                yes
     dipole moment:               no 
     traceless quadrupole moment: no 
     traceless octapole moment:   no 
  
  Atomic charges from electrostatic potential: 
   
 Atom       C1           C2           C3           C4           C5      
 Charge   -0.06868     -0.04867     -0.20448      0.22006      0.09535
   
 Atom       C6           C7           C8           C9           C10     
 Charge   -0.24411     -0.37047     -0.07500      0.05146     -0.13430
   
 Atom       C11          O12          Si13         C14          C15     
 Charge    0.08228     -0.25690      0.03701      0.07044      0.09558
   
 Atom       C16          C17          C18          C19          C20     
 Charge    0.24612     -0.14783     -0.45990     -0.23966      0.14893
   
 Atom       Si21         O22          C23          C24          P25     
 Charge   -0.09333     -0.29918     -0.15690     -0.10139      0.98399
   
 Atom       O26          O27          C28          C29          C30     
 Charge   -0.71292     -0.58684      0.09357     -0.04312      0.06717
   
 Atom       C31          C32          C33          C34          C35     
 Charge    0.00823      0.23239      0.17021     -0.15677     -0.02265
   
 Atom       C36          C37          C38          C39          C40     
 Charge   -0.06752     -0.05370     -0.24974     -0.06447     -0.00964
   
 Atom       C41          C42          C43          C44          C45     
 Charge   -0.13205     -0.15844     -0.17953     -0.15970     -0.23790
   
 Atom       C46          C47          C48          C49          C50     
 Charge   -0.17272     -0.09023     -0.18197     -0.15736     -0.10251
   
 Atom       C51          C52          C53          C54          C55     
 Charge   -0.16954     -0.07573     -0.14082     -0.11487     -0.21105
   
 Atom       C56          C57          C58          C59          C60     
 Charge   -0.08414     -0.15908     -0.16051     -0.12149     -0.14401
   
 Atom       C61          C62          C63          C64          C65     
 Charge   -0.12741     -0.15560     -0.08305     -0.16776     -0.11196
   
 Atom       C66          C67          C68          C69          C70     
 Charge   -0.00169      0.12118     -0.13555     -0.11223     -0.05992
   
 Atom       N71          S72          O73          O74          C75     
 Charge   -0.21238      0.77278     -0.46441     -0.46070      0.58145
   
 Atom       C76          C77          C78          C79          N80     
 Charge   -0.46638      0.37659     -0.57535      0.51302     -0.73350
   
 Atom       N81          C82          C83          C84          C85     
 Charge   -0.12082      0.21625     -0.44592      0.05843     -0.17817
   
 Atom       H86          H87          H88          H89          H90     
 Charge    0.10580      0.14400      0.14217      0.18078      0.12137
   
 Atom       H91          H92          H93          H94          H95     
 Charge    0.11434      0.19892      0.14119      0.13564      0.12360
   
 Atom       H96          H97          H98          H99          H100    
 Charge    0.24960      0.14170      0.08104      0.09520      0.06065
   
 Atom       H101         H102         H103         H104         H105    
 Charge    0.16884      0.04103      0.07870      0.12648      0.13160
   
 Atom       H106         H107         H108         H109         H110    
 Charge    0.11255      0.11057      0.11683      0.12803      0.11722
   
 Atom       H111         H112         H113         H114         H115    
 Charge    0.12604      0.12655      0.12142      0.13255      0.11558
   
 Atom       H116         H117         H118         H119         H120    
 Charge    0.11362      0.09026      0.12711      0.11375      0.13493
   
 Atom       H121         H122         H123         H124         H125    
 Charge    0.12931      0.10571      0.11749      0.12675      0.12943
   
 Atom       H126         H127         H128         H129         H130    
 Charge    0.11966      0.14334      0.12837      0.07335      0.11298
   
 Atom       H131         H132         H133         H134         H135    
 Charge    0.13132      0.15824      0.17136      0.06025      0.20680
   
 Atom       H136         H137         H138         H139         H140    
 Charge    0.03311      0.33728      0.06170      0.21286      0.10667
   
 Atom       H141    
 Charge    0.15646
  
  sum of atomic charges:     0.000000
   
 RMS Error   9.31E-04 hartrees
 
  Peak memory usage:    583 Mb
  
  end of program ch
   
 Time(ch)  user:       18.0  user+sys:       19.0  wallclock:       29.3
  
  start of program post
  
  Writing input files for PBF
  Peak memory usage:    534 Mb
  
  end of program post
   
 Time(post)  user:        0.0  user+sys:        0.0  wallclock:        0.6

  start of program pbf

Pbf Version 4.00

Molecular surface area:      793.60787   [A2]
Reaction field energy:       -16.60372   [kT]
  Peak memory usage: 557 Mb

  end of program pbf

 Time(pbf)  user:       17.2  user+sys:       17.3  wallclock:       25.4
  
  start of program solv
  
   number of surface charges from PBF   13320
   sum of surface charges     -0.00027
   
  nuclear repulsion energy.......   17441.277895762 hartrees
  Peak memory usage:    694 Mb
  
  end of program solv
   
 Time(solv)  user:       37.0  user+sys:       37.0  wallclock:       54.5
  
  start of program scf
  
  
       i  u  d  i  g                   
       t  p  i  c  r                                 RMS    maximum
       e  d  i  u  i                       energy  density   DIIS  
       r  t  s  t  d       total energy    change  change    error 
  
etot    1  N  N  1  U   -4711.54764251307           1.3E-05  2.3E-04
etot    2  N  Y  1  U   -4711.54749955007 -1.4E-04  9.0E-06  5.5E-04
etot    3  N  Y  1  U   -4711.54767167724  1.7E-04  6.4E-07  2.7E-05
etot    4  N  N  1  U   -4711.54767203052  3.5E-07  0.0E+00  0.0E+00
  
  
 Energy components, in hartrees:
   (A)  Total zero-electron terms....   17443.39092689959
   (B)    Nuclear-nuclear............   17441.27789576190
   (C)    Nuclear-solvent............       2.11303113769
   (E)  Total one-electron terms.....  -41227.62992175529
   (F)    Electron-nuclear...........  -45899.88079988302
   (G)    Electron-solvent...........      -2.14752545147
   (H)    Kinetic....................    4674.39840357920
   (I)  Total two-electron terms.....   19072.69132282518
   (J)    Coulomb....................   19647.81252677867
   (K)    Exchange+Correlation.......    -575.12120395350
   (L)  Electronic energy............  -22154.93859893011  (E+I)
   (N)  Total quantum mech. energy...   -4711.54767203052  (A+L)
   (O)  Gas phase energy.............   -4711.51438662278
   (P)  Solution phase energy........   -4711.53042487363  (Q+R+S)
   (Q)    Total solute energy........   -4711.51317771674  (N-C-G)
   (R)    Total solvent energy.......      -0.01724715689  (C/2+G/2)
   (S)    Solute cavity energy.......       0.00000000000
   (U)  Reorganization energy........       0.00120890604  (Q-O)
   (V)  Solvation energy.............      -0.01603825085  (P-O)
  
 SCFE:  Solution phase energy: DFT(b3lyp)      -4711.53042487363 hartrees
        SCF iterations:   4
  
 
 HOMO energy:    -0.20488
 LUMO energy:    -0.09131
 
  Orbital energies (hartrees): 
   -89.12144   -77.21713   -66.11666   -66.11071   -19.18267   -19.17961
   -19.15901   -19.15386   -19.09731   -19.09482   -14.38417   -14.37953
   -14.35496   -10.28703   -10.26097   -10.25630   -10.25123   -10.24223
   -10.23979   -10.22788   -10.21871   -10.21503   -10.21476   -10.21452
   -10.20882   -10.20584   -10.20570   -10.20409   -10.20300   -10.20183
   -10.20003   -10.19897   -10.19867   -10.19735   -10.19573   -10.19533
   -10.19490   -10.19365   -10.19294   -10.19124   -10.19041   -10.19039
   -10.18998   -10.18989   -10.18986   -10.18961   -10.18917   -10.18916
   -10.18889   -10.18877   -10.18862   -10.18814   -10.18798   -10.18730
   -10.18709   -10.18695   -10.18613   -10.18604   -10.18603   -10.18505
   -10.18469   -10.18412   -10.18394   -10.18366   -10.18318   -10.18298
   -10.18293   -10.18222   -10.18174   -10.18149   -10.18147   -10.18003
   -10.17787   -10.17669   -10.17659   -10.17461   -10.17428   -10.17358
   -10.17330   -10.17318   -10.17172   -10.16996   -10.16855   -10.16703
   -10.16106    -8.14731    -6.66150    -6.11259    -6.11139    -6.10989
    -5.26299    -5.25691    -4.82655    -4.82502    -4.82287    -3.62197
    -3.62159    -3.62140    -3.61610    -3.61558    -3.61509    -1.12408
    -1.08934    -1.04803    -1.01708    -0.99068    -0.97010    -0.96747
    -0.95105    -0.92446    -0.87419    -0.86523    -0.86073    -0.84485
    -0.84077    -0.83862    -0.83654    -0.83510    -0.82801    -0.81823
    -0.81798    -0.80786    -0.79508    -0.78934    -0.78922    -0.77737
    -0.75554    -0.75437    -0.74920    -0.74560    -0.74461    -0.74106
    -0.73941    -0.73727    -0.73661    -0.73622    -0.73507    -0.73361
    -0.73252    -0.73132    -0.72961    -0.72877    -0.72640    -0.72419
    -0.70661    -0.70554    -0.66783    -0.64789    -0.64575    -0.62739
    -0.62082    -0.61502    -0.61260    -0.61046    -0.60516    -0.60247
    -0.59842    -0.59556    -0.59426    -0.59299    -0.59188    -0.59011
    -0.58941    -0.58778    -0.58412    -0.58323    -0.58130    -0.58015
    -0.57923    -0.57520    -0.57342    -0.56758    -0.56367    -0.56037
    -0.54210    -0.53561    -0.53274    -0.52537    -0.52181    -0.51933
    -0.50824    -0.50572    -0.50562    -0.50431    -0.50149    -0.49875
    -0.49714    -0.49335    -0.48925    -0.48681    -0.47473    -0.47274
    -0.47050    -0.46608    -0.46357    -0.46128    -0.45607    -0.45565
    -0.45276    -0.45154    -0.45030    -0.44622    -0.44542    -0.44528
    -0.44423    -0.44204    -0.44070    -0.43864    -0.43634    -0.43571
    -0.43326    -0.43259    -0.43153    -0.43136    -0.43109    -0.42747
    -0.42718    -0.42491    -0.42336    -0.42275    -0.42141    -0.42088
    -0.41797    -0.41743    -0.41641    -0.41608    -0.41381    -0.41319
    -0.41130    -0.40922    -0.40614    -0.40370    -0.40222    -0.40072
    -0.39495    -0.39275    -0.38970    -0.38641    -0.38472    -0.38336
    -0.37990    -0.37925    -0.37621    -0.37045    -0.36757    -0.36353
    -0.36238    -0.35939    -0.35893    -0.35550    -0.35506    -0.35394
    -0.35127    -0.35034    -0.34736    -0.34623    -0.34506    -0.34273
    -0.34065    -0.33964    -0.33862    -0.33586    -0.33225    -0.33163
    -0.33154    -0.33058    -0.32687    -0.32469    -0.32298    -0.32033
    -0.31844    -0.31532    -0.31287    -0.30940    -0.30455    -0.29972
    -0.29432    -0.29396    -0.29082    -0.28998    -0.28799    -0.28518
    -0.28334    -0.27999    -0.27726    -0.27255    -0.26950    -0.26738
    -0.26174    -0.26072    -0.25790    -0.25278    -0.25008    -0.24955
    -0.24901    -0.24737    -0.24595    -0.24412    -0.24143    -0.23800
    -0.23571    -0.23498    -0.23457    -0.23212    -0.22852    -0.22775
    -0.22152    -0.20488    -0.09131    -0.04660    -0.04564    -0.03292
    -0.03150    -0.01904    -0.01670    -0.01546    -0.01228    -0.01110
 
  Peak memory usage:    839 Mb
  
  end of program scf
   
 Time(scf)  user:     2054.0  user+sys:     2076.0  wallclock:     3276.4
  
  start of program sole
  
    SCRF                   solvation energy
  iteration          Hartrees            kcal/mol
     0               0.0000000            0.0000
     1              -0.0147710           -9.2690
     2              -0.0157501           -9.8833
     3              -0.0160383          -10.0642
  
  solvation energy not yet converged... 
  
  Peak memory usage:    634 Mb
  
  end of program sole
   
 Time(sole)  user:        0.0  user+sys:        0.0  wallclock:        0.4
  
  start of program ch
  
  gridpoints used for charge fit        16018
    out of a possible maximum of        16018
  
   Electrostatic potential fitting constrained to reproduce
     total charge:                yes
     dipole moment:               no 
     traceless quadrupole moment: no 
     traceless octapole moment:   no 
  
  Atomic charges from electrostatic potential: 
   
 Atom       C1           C2           C3           C4           C5      
 Charge   -0.06916     -0.04987     -0.20389      0.22057      0.09345
   
 Atom       C6           C7           C8           C9           C10     
 Charge   -0.24376     -0.36975     -0.07501      0.05296     -0.13576
   
 Atom       C11          O12          Si13         C14          C15     
 Charge    0.08185     -0.25749      0.03851      0.07052      0.09502
   
 Atom       C16          C17          C18          C19          C20     
 Charge    0.24596     -0.14907     -0.45777     -0.23838      0.14925
   
 Atom       Si21         O22          C23          C24          P25     
 Charge   -0.09222     -0.30004     -0.15600     -0.10210      0.98584
   
 Atom       O26          O27          C28          C29          C30     
 Charge   -0.71422     -0.58682      0.09368     -0.04216      0.06630
   
 Atom       C31          C32          C33          C34          C35     
 Charge    0.00889      0.23257      0.17132     -0.15666     -0.02104
   
 Atom       C36          C37          C38          C39          C40     
 Charge   -0.06778     -0.05396     -0.24929     -0.06304     -0.01002
   
 Atom       C41          C42          C43          C44          C45     
 Charge   -0.13109     -0.15817     -0.17933     -0.15993     -0.23710
   
 Atom       C46          C47          C48          C49          C50     
 Charge   -0.17329     -0.08995     -0.18339     -0.15742     -0.10270
   
 Atom       C51          C52          C53          C54          C55     
 Charge   -0.16936     -0.07630     -0.14065     -0.11454     -0.21183
   
 Atom       C56          C57          C58          C59          C60     
 Charge   -0.08428     -0.15902     -0.16020     -0.12194     -0.14401
   
 Atom       C61          C62          C63          C64          C65     
 Charge   -0.12771     -0.15613     -0.08338     -0.16906     -0.11101
   
 Atom       C66          C67          C68          C69          C70     
 Charge   -0.00191      0.12400     -0.13693     -0.11350     -0.05470
   
 Atom       N71          S72          O73          O74          C75     
 Charge   -0.21165      0.77588     -0.46532     -0.46288      0.58408
   
 Atom       C76          C77          C78          C79          N80     
 Charge   -0.46745      0.37558     -0.57780      0.51378     -0.73234
   
 Atom       N81          C82          C83          C84          C85     
 Charge   -0.12115      0.21376     -0.44721      0.05792     -0.17763
   
 Atom       H86          H87          H88          H89          H90     
 Charge    0.10579      0.14396      0.14209      0.18041      0.12131
   
 Atom       H91          H92          H93          H94          H95     
 Charge    0.11452      0.19854      0.14089      0.13547      0.12355
   
 Atom       H96          H97          H98          H99          H100    
 Charge    0.24978      0.14154      0.08087      0.09512      0.06080
   
 Atom       H101         H102         H103         H104         H105    
 Charge    0.16861      0.04027      0.07853      0.12632      0.13144
   
 Atom       H106         H107         H108         H109         H110    
 Charge    0.11244      0.11037      0.11657      0.12792      0.11708
   
 Atom       H111         H112         H113         H114         H115    
 Charge    0.12625      0.12647      0.12135      0.13237      0.11558
   
 Atom       H116         H117         H118         H119         H120    
 Charge    0.11345      0.08985      0.12705      0.11370      0.13484
   
 Atom       H121         H122         H123         H124         H125    
 Charge    0.12918      0.10573      0.11721      0.12668      0.12941
   
 Atom       H126         H127         H128         H129         H130    
 Charge    0.11957      0.14347      0.12792      0.07266      0.11302
   
 Atom       H131         H132         H133         H134         H135    
 Charge    0.13156      0.15752      0.17110      0.06023      0.20712
   
 Atom       H136         H137         H138         H139         H140    
 Charge    0.03274      0.33803      0.06162      0.21321      0.10660
   
 Atom       H141    
 Charge    0.15613
  
  sum of atomic charges:     0.000000
   
 RMS Error   9.31E-04 hartrees
 
  Peak memory usage:    583 Mb
  
  end of program ch
   
 Time(ch)  user:       18.0  user+sys:       19.0  wallclock:       24.8
  
  start of program post
  
  Writing input files for PBF
  Peak memory usage:    534 Mb
  
  end of program post
   
 Time(post)  user:        0.0  user+sys:        0.0  wallclock:        0.5

  start of program pbf

Pbf Version 4.00

Molecular surface area:      793.60787   [A2]
Reaction field energy:       -16.49458   [kT]
  Peak memory usage: 557 Mb

  end of program pbf

 Time(pbf)  user:       17.7  user+sys:       17.8  wallclock:       29.5
  
  start of program solv
  
   number of surface charges from PBF   13320
   sum of surface charges     -0.00027
   
  nuclear repulsion energy.......   17441.277895762 hartrees
  Peak memory usage:    694 Mb
  
  end of program solv
   
 Time(solv)  user:       37.0  user+sys:       37.0  wallclock:       57.6
  
  start of program scf
  
  
       i  u  d  i  g                   
       t  p  i  c  r                                 RMS    maximum
       e  d  i  u  i                       energy  density   DIIS  
       r  t  s  t  d       total energy    change  change    error 
  
etot    1  N  N  1  U   -4711.54757182621           1.0E-06  2.3E-05
etot    2  N  N  1  U   -4711.54757132654 -5.0E-07  0.0E+00  0.0E+00
  
  
 Energy components, in hartrees:
   (A)  Total zero-electron terms....   17443.37776681975
   (B)    Nuclear-nuclear............   17441.27789576190
   (C)    Nuclear-solvent............       2.09987105785
   (E)  Total one-electron terms.....  -41227.62324997634
   (F)    Electron-nuclear...........  -45899.88776543601
   (G)    Electron-solvent...........      -2.13423200542
   (H)    Kinetic....................    4674.39874746509
   (I)  Total two-electron terms.....   19072.69791183005
   (J)    Coulomb....................   19647.81915526904
   (K)    Exchange+Correlation.......    -575.12124343899
   (L)  Electronic energy............  -22154.92533814629  (E+I)
   (N)  Total quantum mech. energy...   -4711.54757132654  (A+L)
   (O)  Gas phase energy.............   -4711.51438662278
   (P)  Solution phase energy........   -4711.53039085276  (Q+R+S)
   (Q)    Total solute energy........   -4711.51321037897  (N-C-G)
   (R)    Total solvent energy.......      -0.01718047378  (C/2+G/2)
   (S)    Solute cavity energy.......       0.00000000000
   (U)  Reorganization energy........       0.00117624381  (Q-O)
   (V)  Solvation energy.............      -0.01600422997  (P-O)
  
 SCFE:  Solution phase energy: DFT(b3lyp)      -4711.53039085276 hartrees
        SCF iterations:   2
  
 
 HOMO energy:    -0.20485
 LUMO energy:    -0.09131
 
  Orbital energies (hartrees): 
   -89.12150   -77.21700   -66.11661   -66.11066   -19.18234   -19.17959
   -19.15967   -19.15342   -19.09714   -19.09457   -14.38372   -14.37940
   -14.35577   -10.28690   -10.26129   -10.25611   -10.25116   -10.24244
   -10.23998   -10.22787   -10.21816   -10.21470   -10.21466   -10.21418
   -10.20903   -10.20586   -10.20584   -10.20417   -10.20304   -10.20182
   -10.20010   -10.19890   -10.19870   -10.19729   -10.19580   -10.19522
   -10.19507   -10.19350   -10.19298   -10.19134   -10.19052   -10.19030
   -10.18995   -10.18991   -10.18989   -10.18952   -10.18913   -10.18908
   -10.18887   -10.18880   -10.18851   -10.18814   -10.18784   -10.18729
   -10.18709   -10.18686   -10.18605   -10.18603   -10.18599   -10.18506
   -10.18468   -10.18401   -10.18383   -10.18364   -10.18317   -10.18292
   -10.18272   -10.18218   -10.18161   -10.18159   -10.18146   -10.18010
   -10.17777   -10.17673   -10.17649   -10.17461   -10.17419   -10.17362
   -10.17331   -10.17303   -10.17155   -10.16991   -10.16853   -10.16715
   -10.16098    -8.14736    -6.66137    -6.11265    -6.11144    -6.10994
    -5.26294    -5.25687    -4.82641    -4.82489    -4.82274    -3.62193
    -3.62154    -3.62135    -3.61606    -3.61554    -3.61504    -1.12413
    -1.08921    -1.04788    -1.01713    -0.99068    -0.96996    -0.96776
    -0.95087    -0.92429    -0.87416    -0.86522    -0.86070    -0.84485
    -0.84076    -0.83860    -0.83652    -0.83503    -0.82794    -0.81806
    -0.81793    -0.80781    -0.79510    -0.78933    -0.78928    -0.77735
    -0.75552    -0.75437    -0.74918    -0.74555    -0.74462    -0.74106
    -0.73943    -0.73726    -0.73662    -0.73616    -0.73506    -0.73356
    -0.73247    -0.73130    -0.72955    -0.72871    -0.72632    -0.72413
    -0.70656    -0.70551    -0.66779    -0.64789    -0.64569    -0.62733
    -0.62077    -0.61498    -0.61255    -0.61044    -0.60512    -0.60247
    -0.59839    -0.59554    -0.59425    -0.59299    -0.59185    -0.59009
    -0.58939    -0.58772    -0.58419    -0.58322    -0.58128    -0.58009
    -0.57917    -0.57517    -0.57337    -0.56757    -0.56361    -0.56039
    -0.54202    -0.53557    -0.53272    -0.52533    -0.52177    -0.51929
    -0.50825    -0.50569    -0.50561    -0.50429    -0.50144    -0.49870
    -0.49708    -0.49327    -0.48919    -0.48679    -0.47467    -0.47271
    -0.47046    -0.46605    -0.46351    -0.46124    -0.45606    -0.45568
    -0.45273    -0.45153    -0.45029    -0.44622    -0.44538    -0.44526
    -0.44420    -0.44203    -0.44068    -0.43859    -0.43630    -0.43570
    -0.43324    -0.43256    -0.43150    -0.43134    -0.43104    -0.42744
    -0.42715    -0.42485    -0.42335    -0.42274    -0.42142    -0.42082
    -0.41789    -0.41742    -0.41635    -0.41604    -0.41380    -0.41317
    -0.41124    -0.40924    -0.40623    -0.40364    -0.40218    -0.40076
    -0.39491    -0.39267    -0.38967    -0.38639    -0.38466    -0.38332
    -0.37987    -0.37921    -0.37619    -0.37039    -0.36751    -0.36350
    -0.36234    -0.35937    -0.35891    -0.35547    -0.35502    -0.35393
    -0.35123    -0.35029    -0.34732    -0.34617    -0.34501    -0.34269
    -0.34061    -0.33962    -0.33859    -0.33586    -0.33222    -0.33162
    -0.33155    -0.33060    -0.32684    -0.32462    -0.32292    -0.32028
    -0.31838    -0.31534    -0.31280    -0.30931    -0.30446    -0.29967
    -0.29428    -0.29391    -0.29080    -0.28995    -0.28796    -0.28516
    -0.28330    -0.27996    -0.27741    -0.27250    -0.26951    -0.26732
    -0.26172    -0.26061    -0.25784    -0.25279    -0.25006    -0.24951
    -0.24899    -0.24736    -0.24594    -0.24410    -0.24136    -0.23795
    -0.23566    -0.23495    -0.23451    -0.23208    -0.22848    -0.22770
    -0.22147    -0.20485    -0.09131    -0.04660    -0.04561    -0.03288
    -0.03146    -0.01902    -0.01665    -0.01545    -0.01227    -0.01106
 
  Peak memory usage:    839 Mb
  
  end of program scf
   
 Time(scf)  user:      700.0  user+sys:      709.0  wallclock:     1106.1
  
  start of program sole
  
    SCRF                   solvation energy
  iteration          Hartrees            kcal/mol
     0               0.0000000            0.0000
     1              -0.0147710           -9.2690
     2              -0.0157501           -9.8833
     3              -0.0160383          -10.0642
     4              -0.0160042          -10.0428
  
  stopping: solvation energy converged
  
  iterations:   4    sfinal:    -10.0428 kcal/mol
  
  Peak memory usage:    634 Mb
  
  end of program sole
   
 Time(sole)  user:        0.0  user+sys:        0.0  wallclock:        0.4
  
  start of program post
  
  Writing input files for PBF
  Peak memory usage:    534 Mb
  
  end of program post
   
 Time(post)  user:        0.0  user+sys:        0.0  wallclock:        0.4

 Total cpu seconds     user:   15529.000   user+sys:   15706.000
  
 Total elapsed time:    30042 seconds

Job Toru-SiPh3-Type-II-E-1-scan-unrestrained_SPE_B3LYP completed on tethys at Mon Nov 14 19:56:38 2016
