Job B3LYP-SPE-Toru-SiPh3-Type-I-E-10-unrestrained started on tethys at Mon Nov 28 11:22:14 2016
jobid: tethys-0-583c1365

  +--------------------------------------------------------------------+
  |  Jaguar version 8.4, release  16                                   |
  |                                                                    |
  |  Copyright Schrodinger, Inc.                                       |
  |  All Rights Reserved.                                              |
  |                                                                    |
  |  The following have contributed to Jaguar (listed alphabetically): |
  |  Mike Beachy, Art Bochevarov, Dale Braden, Yixiang Cao,            |
  |  Chris Cortis, Rich Friesner, Bill Goddard, Hod Greeley,           |
  |  Tom Hughes, Jean-Marc Langlois, Daniel Mainz, Rob Murphy,         |
  |  Dean Philipp, Tom Pollard, Murco Ringnalda.                       |
  |                                                                    |
  |  Use of this program should be acknowledged in publications as:    |
  |                                                                    |
  |  Jaguar, version 8.4, Schrodinger, Inc., New York, NY, 2013.       |
  |                                                                    |
  |  A. D. Bochevarov, E. Harder, T. F. Hughes, J. R. Greenwood,       |
  |  D. A. Braden, D. M. Philipp, D. Rinaldo, M. D. Halls,             |
  |  J. Zhang, R. A. Friesner, "Jaguar: A High-Performance Quantum     |
  |  Chemistry Software Program with Strengths in Life and Materials   |
  |  Sciences", Int. J. Quantum Chem., 2013, 113(18), 2110-2142.       |
  +--------------------------------------------------------------------+
  
  start of program pre
  
  Job name: B3LYP-SPE-Toru-SiPh3-Type-I-E-10-unrestrained
  Executables used: /usr/local/shared/schrodinger/current/jaguar-v84016/bin/Linux-x86_64
  Temporary files : /home/ab2144/.schrodinger/tmp/B3LYP-SPE-Toru-SiPh3-Type-I-E-10-unrestrained
  Maestro file (input):  B3LYP-SPE-Toru-SiPh3-Type-I-E-10-unrestrained.mae
  Maestro file (output): B3LYP-SPE-Toru-SiPh3-Type-I-E-10-unrestrained.01.mae
  
  
  basis set:             6-31g**         
  net molecular charge:    0
  multiplicity:            1
  
  keygrid settings 
    wispc.....   7.500E-01
    ldens.....   0
    denspc....   7.500E-01
  
   grid     daf set  nls  grid set  Q type
  ------    -------  ---  --------  ------
  coarse       1      1       1        1
  medium       2      2       2        1
  fine         3      2       3        0
  ultrafine    4      2       4        1
  charge       0      1      -1        1
  gradient     5      2       4        1
  density      0      1       0        0
  DFT-fine     0      1     -13        0
  DFT-med.     0      1     -13        0
  DFT-grad     0      1     -13        0
  DFT-der2     0      1       0        0
  DFT-cphf     0      1       0        0
  LMP2-enrg    4      2       4        1
  LMP2-grad    5      2       2        1
  DFT-cphf2    0      1       0        0
  PBF-dens     0      1       0        0
  plotting     0      1       0        0
  
  idftgrdm  100
  ndftgrdm   50    0    0
  idftgrdf  111
  ndftgrdf   85    0    0
  idftgrdg  111
  ndftgrdg   80    3    0
  idftgrdu  433
  ndftgrdu  105    0    0
  idftgrdd  433
  ndftgrdd  105    0    0
  idftgrdc  433
  ndftgrdc   26    0    0
  idftgrdp  433
  ndftgrdp   18    0    0
  
  number of basis functions....         1571
  
 Input geometry:
                                   angstroms
  atom               x                 y                 z
  C1            1.2264000000      5.3206000000     -0.9637000000 
  C2            1.9541000000      4.0320000000     -0.7978000000 
  C3            1.8565000000      6.3952000000     -1.4522000000 
  C4            3.2458000000      3.9552000000     -1.1828000000 
  C5            1.2765000000      2.8169000000     -0.2559000000 
  C6            3.9360000000      5.1521000000     -1.7178000000 
  C7            3.9758000000      2.6802000000     -1.0667000000 
  C8            3.2767000000      6.3089000000     -1.8413000000 
  C9            1.9014000000      1.6176000000     -0.3080000000 
  C10          -0.0844000000      2.9088000000      0.3217000000 
  C11           3.3564000000      1.5705000000     -0.6344000000 
  O12           1.2678000000      0.4833000000      0.1476000000 
  Si13          4.3414000000     -0.0012000000     -0.4231000000 
  C14          -0.3660000000      3.6583000000      1.4120000000 
  C15          -1.1624000000      2.1320000000     -0.3377000000 
  C16          -1.7734000000      3.7856000000      1.8672000000 
  C17           0.6766000000      4.3519000000      2.2097000000 
  C18          -2.7559000000      3.1663000000      1.2013000000 
  C19          -2.0616000000      4.6103000000      3.0569000000 
  C20          -2.4473000000      2.3087000000      0.0350000000 
  Si21         -3.8710000000      1.4343000000     -0.7893000000 
  O22          -0.8179000000      1.2451000000     -1.3260000000 
  C23           0.3407000000      5.0762000000      3.2837000000 
  C24          -1.0668000000      5.2135000000      3.7164000000 
  P25          -0.0215000000     -0.0779000000     -0.7527000000 
  O26           0.4441000000     -0.8648000000     -1.9487000000 
  O27          -0.9044000000     -0.7780000000      0.2640000000 
  C28           3.7232000000     -1.2115000000     -1.6915000000 
  C29           6.1483000000      0.3232000000     -0.7203000000 
  C30           4.2532000000     -0.6157000000      1.3329000000 
  C31          -4.3494000000     -0.0442000000      0.2451000000 
  C32          -5.2840000000      2.6510000000     -0.8718000000 
  C33          -3.3907000000      0.9168000000     -2.5186000000 
  C34           3.5573000000     -2.5144000000     -1.4122000000 
  C35           3.4998000000     -0.7295000000     -3.0765000000 
  C36           6.8135000000     -0.2633000000     -1.7302000000 
  C37           6.8742000000      1.2278000000      0.2036000000 
  C38           4.9218000000     -1.7245000000      1.6936000000 
  C39           3.5406000000      0.1692000000      2.3723000000 
  C40          -3.7081000000     -0.3252000000      1.3939000000 
  C41          -5.4605000000     -0.9225000000     -0.1967000000 
  C42          -5.0861000000      3.8781000000     -1.3851000000 
  C43          -6.6179000000      2.3094000000     -0.3152000000 
  C44          -2.9973000000      1.8314000000     -3.4225000000 
  C45          -3.3522000000     -0.5185000000     -2.8856000000 
  C46           3.1976000000     -3.4630000000     -2.4871000000 
  C47           2.9909000000     -3.0220000000     -3.7328000000 
  C48           3.1435000000     -1.5867000000     -4.0406000000 
  C49           8.2536000000      0.0059000000     -1.9254000000 
  C50           8.9021000000      0.8285000000     -1.0924000000 
  C51           8.1787000000      1.4682000000      0.0249000000 
  C52           4.8751000000     -2.2030000000      3.0910000000 
  C53           4.1970000000     -1.5119000000      4.0142000000 
  C54           3.5091000000     -0.2608000000      3.6398000000 
  C55          -4.0932000000     -1.5059000000      2.1939000000 
  C56          -5.0986000000     -2.2904000000      1.7909000000 
  C57          -5.8217000000     -1.9788000000      0.5420000000 
  C58          -6.1928000000      4.8555000000     -1.4381000000 
  C59          -7.3971000000      4.5314000000     -0.9559000000 
  C60          -7.6175000000      3.1990000000     -0.3610000000 
  C61          -2.5504000000      1.4107000000     -4.7670000000 
  C62          -2.5188000000      0.1126000000     -5.0878000000 
  C63          -2.9357000000     -0.8997000000     -4.0987000000 
  C64          -3.7277000000     -6.3643000000     -0.5256000000 
  C65          -2.5659000000     -5.9742000000      0.1311000000 
  C66          -2.1408000000     -4.6356000000      0.1005000000 
  C67          -2.8888000000     -3.6925000000     -0.6185000000 
  C68          -4.0440000000     -4.0938000000     -1.2915000000 
  C69          -4.4677000000     -5.4217000000     -1.2429000000 
  C70          -0.9155000000     -4.2867000000      0.8462000000 
  N71          -0.8101000000     -3.0686000000      1.4577000000 
  S72           0.4366000000     -2.8869000000      2.6230000000 
  O73           0.4682000000     -4.1174000000      3.4135000000 
  O74           1.6512000000     -2.4244000000      1.9391000000 
  C75          -0.2445000000     -1.4997000000      3.5785000000 
  C76           0.0581000000     -0.1988000000      3.1805000000 
  C77          -0.4920000000      0.8244000000      3.9526000000 
  C78          -1.2994000000      0.4989000000      5.0403000000 
  C79          -1.5316000000     -0.8487000000      5.3262000000 
  N80          -1.0103000000     -1.8458000000      4.6036000000 
  N81           0.1799000000     -3.4949000000     -1.6120000000 
  C82          -0.2291000000     -4.2304000000     -2.6445000000 
  C83          -0.0246000000     -5.6028000000     -2.3672000000 
  C84           0.5429000000     -5.6678000000     -1.1080000000 
  C85           0.5984000000     -4.3410000000     -0.5756000000 
  H86           0.1795000000      5.4025000000     -0.7033000000 
  H87           1.3232000000      7.3296000000     -1.5712000000 
  H88           4.9768000000      5.0944000000     -2.0115000000 
  H89           5.0219000000      2.6632000000     -1.3390000000 
  H90           3.7812000000      7.1827000000     -2.2331000000 
  H91           1.7239000000      4.2661000000      1.9509000000 
  H92          -3.7824000000      3.2663000000      1.5345000000 
  H93          -3.0805000000      4.7293000000      3.4058000000 
  H94           1.1154000000      5.5693000000      3.8568000000 
  H95          -1.2919000000      5.8124000000      4.5895000000 
  H96          -0.9438000000     -2.1517000000      0.9107000000 
  H97           3.7065000000     -2.9001000000     -0.4159000000 
  H98           3.6248000000      0.3193000000     -3.3151000000 
  H99           6.3171000000     -0.9397000000     -2.4120000000 
  H100          6.3502000000      1.6997000000      1.0257000000 
  H101          5.5066000000     -2.2802000000      0.9716000000 
  H102          3.0555000000      1.1025000000      2.1248000000 
  H103         -2.9000000000      0.2960000000      1.7542000000 
  H104         -5.9861000000     -0.7109000000     -1.1195000000 
  H105         -4.1130000000      4.1841000000     -1.7413000000 
  H106         -6.7971000000      1.3509000000      0.1469000000 
  H107         -2.9634000000      2.8816000000     -3.1763000000 
  H108         -3.6419000000     -1.2687000000     -2.1729000000 
  H109          3.0967000000     -4.5165000000     -2.2620000000 
  H110          2.7171000000     -3.7159000000     -4.5168000000 
  H111          2.9781000000     -1.2321000000     -5.0496000000 
  H112          8.7825000000     -0.4659000000     -2.7434000000 
  H113          9.9569000000      1.0252000000     -1.2342000000 
  H114          8.7066000000      2.1303000000      0.6990000000 
  H115          5.3910000000     -3.1140000000      3.3650000000 
  H116          4.1608000000     -1.8611000000      5.0379000000 
  H117          2.9857000000      0.3118000000      4.3946000000 
  H118         -3.5590000000     -1.7341000000      3.1067000000 
  H119         -5.3802000000     -3.1570000000      2.3748000000 
  H120         -6.6323000000     -2.6176000000      0.2164000000 
  H121         -6.0245000000      5.8358000000     -1.8649000000 
  H122         -8.2084000000      5.2470000000     -0.9917000000 
  H123         -8.5877000000      2.9475000000      0.0478000000 
  H124         -2.2389000000      2.1558000000     -5.4876000000 
  H125         -2.1850000000     -0.1979000000     -6.0694000000 
  H126         -2.9001000000     -1.9508000000     -4.3552000000 
  H127         -4.0550000000     -7.3984000000     -0.4787000000 
  H128         -1.9855000000     -6.7063000000      0.6860000000 
  H129         -2.5685000000     -2.6556000000     -0.6308000000 
  H130         -4.6271000000     -3.3704000000     -1.8512000000 
  H131         -5.3732000000     -5.7212000000     -1.7621000000 
  H132         -0.5193000000     -5.0951000000      1.4569000000 
  H133          0.6673000000     -0.0043000000      2.3065000000 
  H134         -0.2899000000      1.8613000000      3.7068000000 
  H135         -1.7450000000      1.2710000000      5.6591000000 
  H136         -2.1589000000     -1.1414000000      6.1647000000 
  H137          0.2637000000     -2.4353000000     -1.6529000000 
  H138         -0.6347000000     -3.7604000000     -3.5304000000 
  H139         -0.2799000000     -6.4227000000     -3.0228000000 
  H140          0.8342000000     -6.5589000000     -0.5680000000 
  H141          1.3504000000     -3.9649000000      0.1081000000 
   
  principal moments of inertia:
        amu*angstrom^2:    17136.90990    21911.33615    26924.94023
                g*cm^2: 2.84565048E-36 3.63846251E-36 4.47099096E-36
   
  rotational constants:
               cm^(-1):      0.00098370      0.00076936      0.00062610
                   GHz:      0.02949067      0.02306473      0.01876992
   
  Molecular weight:    1177.32 amu
   
  Stoichiometry: Si2C72PN3H56SO6
  Molecular Point Group: C1      
  Point Group used: C1
  
  nuclear repulsion energy.......   17561.422699078 hartrees
 
 Non-default options chosen:
   SCF calculation type: DFT(b3lyp)                  
   DFT=Becke_3_Parameter/HF+Slater+Becke88+VWN+LYP (B3LYP)
   Solvation energy will be computed using PBF
     -solute cavity energy will not be included
     -surface area terms will not be included
   Highest accuracy cutoffs used in SCF
   Solvent: other                                                           
   Internal dielectric constant:    1.000
   Continuum dielectric constant:   2.380
   Solvent probe molecule radius:   2.760
  
 Temporary integer options set:
     73=  2
  
  atom       vdw   vdw2    cov     mass  grid  daf  charge   basis
  C1        1.949  1.900  0.770   12.000    Y    Y      Y    6-31g**
  C2        1.949  1.900  0.770   12.000    Y    Y      Y    6-31g**
  C3        1.949  1.900  0.770   12.000    Y    Y      Y    6-31g**
  C4        1.949  1.900  0.770   12.000    Y    Y      Y    6-31g**
  C5        1.949  1.900  0.770   12.000    Y    Y      Y    6-31g**
  C6        1.949  1.900  0.770   12.000    Y    Y      Y    6-31g**
  C7        1.949  1.900  0.770   12.000    Y    Y      Y    6-31g**
  C8        1.949  1.900  0.770   12.000    Y    Y      Y    6-31g**
  C9        1.949  1.900  0.770   12.000    Y    Y      Y    6-31g**
  C10       1.949  1.900  0.770   12.000    Y    Y      Y    6-31g**
  C11       1.949  1.900  0.770   12.000    Y    Y      Y    6-31g**
  O12       1.702  1.600  0.730   15.995    Y    Y      Y    6-31g**
  Si13      2.217  2.147  1.110   27.977    Y    Y      Y    6-31g**
  C14       1.949  1.900  0.770   12.000    Y    Y      Y    6-31g**
  C15       1.949  1.900  0.770   12.000    Y    Y      Y    6-31g**
  C16       1.949  1.900  0.770   12.000    Y    Y      Y    6-31g**
  C17       1.949  1.900  0.770   12.000    Y    Y      Y    6-31g**
  C18       1.949  1.900  0.770   12.000    Y    Y      Y    6-31g**
  C19       1.949  1.900  0.770   12.000    Y    Y      Y    6-31g**
  C20       1.949  1.900  0.770   12.000    Y    Y      Y    6-31g**
  Si21      2.217  2.147  1.110   27.977    Y    Y      Y    6-31g**
  O22       1.702  1.600  0.730   15.995    Y    Y      Y    6-31g**
  C23       1.949  1.900  0.770   12.000    Y    Y      Y    6-31g**
  C24       1.949  1.900  0.770   12.000    Y    Y      Y    6-31g**
  P25       2.147  2.074  1.060   30.974    Y    Y      Y    6-31g**
  O26       1.702  1.600  0.730   15.995    Y    Y      Y    6-31g**
  O27       1.702  1.600  0.730   15.995    Y    Y      Y    6-31g**
  C28       1.949  1.900  0.770   12.000    Y    Y      Y    6-31g**
  C29       1.949  1.900  0.770   12.000    Y    Y      Y    6-31g**
  C30       1.949  1.900  0.770   12.000    Y    Y      Y    6-31g**
  C31       1.949  1.900  0.770   12.000    Y    Y      Y    6-31g**
  C32       1.949  1.900  0.770   12.000    Y    Y      Y    6-31g**
  C33       1.949  1.900  0.770   12.000    Y    Y      Y    6-31g**
  C34       1.949  1.900  0.770   12.000    Y    Y      Y    6-31g**
  C35       1.949  1.900  0.770   12.000    Y    Y      Y    6-31g**
  C36       1.949  1.900  0.770   12.000    Y    Y      Y    6-31g**
  C37       1.949  1.900  0.770   12.000    Y    Y      Y    6-31g**
  C38       1.949  1.900  0.770   12.000    Y    Y      Y    6-31g**
  C39       1.949  1.900  0.770   12.000    Y    Y      Y    6-31g**
  C40       1.949  1.900  0.770   12.000    Y    Y      Y    6-31g**
  C41       1.949  1.900  0.770   12.000    Y    Y      Y    6-31g**
  C42       1.949  1.900  0.770   12.000    Y    Y      Y    6-31g**
  C43       1.949  1.900  0.770   12.000    Y    Y      Y    6-31g**
  C44       1.949  1.900  0.770   12.000    Y    Y      Y    6-31g**
  C45       1.949  1.900  0.770   12.000    Y    Y      Y    6-31g**
  C46       1.949  1.900  0.770   12.000    Y    Y      Y    6-31g**
  C47       1.949  1.900  0.770   12.000    Y    Y      Y    6-31g**
  C48       1.949  1.900  0.770   12.000    Y    Y      Y    6-31g**
  C49       1.949  1.900  0.770   12.000    Y    Y      Y    6-31g**
  C50       1.949  1.900  0.770   12.000    Y    Y      Y    6-31g**
  C51       1.949  1.900  0.770   12.000    Y    Y      Y    6-31g**
  C52       1.949  1.900  0.770   12.000    Y    Y      Y    6-31g**
  C53       1.949  1.900  0.770   12.000    Y    Y      Y    6-31g**
  C54       1.949  1.900  0.770   12.000    Y    Y      Y    6-31g**
  C55       1.949  1.900  0.770   12.000    Y    Y      Y    6-31g**
  C56       1.949  1.900  0.770   12.000    Y    Y      Y    6-31g**
  C57       1.949  1.900  0.770   12.000    Y    Y      Y    6-31g**
  C58       1.949  1.900  0.770   12.000    Y    Y      Y    6-31g**
  C59       1.949  1.900  0.770   12.000    Y    Y      Y    6-31g**
  C60       1.949  1.900  0.770   12.000    Y    Y      Y    6-31g**
  C61       1.949  1.900  0.770   12.000    Y    Y      Y    6-31g**
  C62       1.949  1.900  0.770   12.000    Y    Y      Y    6-31g**
  C63       1.949  1.900  0.770   12.000    Y    Y      Y    6-31g**
  C64       1.949  1.900  0.770   12.000    Y    Y      Y    6-31g**
  C65       1.949  1.900  0.770   12.000    Y    Y      Y    6-31g**
  C66       1.949  1.900  0.770   12.000    Y    Y      Y    6-31g**
  C67       1.949  1.900  0.770   12.000    Y    Y      Y    6-31g**
  C68       1.949  1.900  0.770   12.000    Y    Y      Y    6-31g**
  C69       1.949  1.900  0.770   12.000    Y    Y      Y    6-31g**
  C70       1.949  1.900  0.770   12.000    Y    Y      Y    6-31g**
  N71       1.831  1.600  0.750   14.003    Y    Y      Y    6-31g**
  S72       2.070  1.900  1.020   31.972    Y    Y      Y    6-31g**
  O73       1.702  1.600  0.730   15.995    Y    Y      Y    6-31g**
  O74       1.702  1.600  0.730   15.995    Y    Y      Y    6-31g**
  C75       1.949  1.900  0.770   12.000    Y    Y      Y    6-31g**
  C76       1.949  1.900  0.770   12.000    Y    Y      Y    6-31g**
  C77       1.949  1.900  0.770   12.000    Y    Y      Y    6-31g**
  C78       1.949  1.900  0.770   12.000    Y    Y      Y    6-31g**
  C79       1.949  1.900  0.770   12.000    Y    Y      Y    6-31g**
  N80       1.831  1.600  0.750   14.003    Y    Y      Y    6-31g**
  N81       1.831  1.600  0.750   14.003    Y    Y      Y    6-31g**
  C82       1.949  1.900  0.770   12.000    Y    Y      Y    6-31g**
  C83       1.949  1.900  0.770   12.000    Y    Y      Y    6-31g**
  C84       1.949  1.900  0.770   12.000    Y    Y      Y    6-31g**
  C85       1.949  1.900  0.770   12.000    Y    Y      Y    6-31g**
  H86       1.597  1.150  0.320    1.008    Y    Y      Y    6-31g**
  H87       1.597  1.150  0.320    1.008    Y    Y      Y    6-31g**
  H88       1.597  1.150  0.320    1.008    Y    Y      Y    6-31g**
  H89       1.597  1.150  0.320    1.008    Y    Y      Y    6-31g**
  H90       1.597  1.150  0.320    1.008    Y    Y      Y    6-31g**
  H91       1.597  1.150  0.320    1.008    Y    Y      Y    6-31g**
  H92       1.597  1.150  0.320    1.008    Y    Y      Y    6-31g**
  H93       1.597  1.150  0.320    1.008    Y    Y      Y    6-31g**
  H94       1.597  1.150  0.320    1.008    Y    Y      Y    6-31g**
  H95       1.597  1.150  0.320    1.008    Y    Y      Y    6-31g**
  H96       1.597  1.150  0.320    1.008    Y    Y      Y    6-31g**
  H97       1.597  1.150  0.320    1.008    Y    Y      Y    6-31g**
  H98       1.597  1.150  0.320    1.008    Y    Y      Y    6-31g**
  H99       1.597  1.150  0.320    1.008    Y    Y      Y    6-31g**
  H100      1.597  1.150  0.320    1.008    Y    Y      Y    6-31g**
  H101      1.597  1.150  0.320    1.008    Y    Y      Y    6-31g**
  H102      1.597  1.150  0.320    1.008    Y    Y      Y    6-31g**
  H103      1.597  1.150  0.320    1.008    Y    Y      Y    6-31g**
  H104      1.597  1.150  0.320    1.008    Y    Y      Y    6-31g**
  H105      1.597  1.150  0.320    1.008    Y    Y      Y    6-31g**
  H106      1.597  1.150  0.320    1.008    Y    Y      Y    6-31g**
  H107      1.597  1.150  0.320    1.008    Y    Y      Y    6-31g**
  H108      1.597  1.150  0.320    1.008    Y    Y      Y    6-31g**
  H109      1.597  1.150  0.320    1.008    Y    Y      Y    6-31g**
  H110      1.597  1.150  0.320    1.008    Y    Y      Y    6-31g**
  H111      1.597  1.150  0.320    1.008    Y    Y      Y    6-31g**
  H112      1.597  1.150  0.320    1.008    Y    Y      Y    6-31g**
  H113      1.597  1.150  0.320    1.008    Y    Y      Y    6-31g**
  H114      1.597  1.150  0.320    1.008    Y    Y      Y    6-31g**
  H115      1.597  1.150  0.320    1.008    Y    Y      Y    6-31g**
  H116      1.597  1.150  0.320    1.008    Y    Y      Y    6-31g**
  H117      1.597  1.150  0.320    1.008    Y    Y      Y    6-31g**
  H118      1.597  1.150  0.320    1.008    Y    Y      Y    6-31g**
  H119      1.597  1.150  0.320    1.008    Y    Y      Y    6-31g**
  H120      1.597  1.150  0.320    1.008    Y    Y      Y    6-31g**
  H121      1.597  1.150  0.320    1.008    Y    Y      Y    6-31g**
  H122      1.597  1.150  0.320    1.008    Y    Y      Y    6-31g**
  H123      1.597  1.150  0.320    1.008    Y    Y      Y    6-31g**
  H124      1.597  1.150  0.320    1.008    Y    Y      Y    6-31g**
  H125      1.597  1.150  0.320    1.008    Y    Y      Y    6-31g**
  H126      1.597  1.150  0.320    1.008    Y    Y      Y    6-31g**
  H127      1.597  1.150  0.320    1.008    Y    Y      Y    6-31g**
  H128      1.597  1.150  0.320    1.008    Y    Y      Y    6-31g**
  H129      1.597  1.150  0.320    1.008    Y    Y      Y    6-31g**
  H130      1.597  1.150  0.320    1.008    Y    Y      Y    6-31g**
  H131      1.597  1.150  0.320    1.008    Y    Y      Y    6-31g**
  H132      1.597  1.150  0.320    1.008    Y    Y      Y    6-31g**
  H133      1.597  1.150  0.320    1.008    Y    Y      Y    6-31g**
  H134      1.597  1.150  0.320    1.008    Y    Y      Y    6-31g**
  H135      1.597  1.150  0.320    1.008    Y    Y      Y    6-31g**
  H136      1.597  1.150  0.320    1.008    Y    Y      Y    6-31g**
  H137      1.597  1.150  0.320    1.008    Y    Y      Y    6-31g**
  H138      1.597  1.150  0.320    1.008    Y    Y      Y    6-31g**
  H139      1.597  1.150  0.320    1.008    Y    Y      Y    6-31g**
  H140      1.597  1.150  0.320    1.008    Y    Y      Y    6-31g**
  H141      1.597  1.150  0.320    1.008    Y    Y      Y    6-31g**
  
  Peak memory usage:    526 Mb
  
  end of program pre
   
 Time(pre)  user:        0.0  user+sys:        0.0  wallclock:        0.7
  
  start of program onee
  
  smallest eigenvalue of S:    2.199E-04
  number of canonical orbitals.....         1564
  Peak memory usage:    700 Mb
  
  end of program onee
   
 Time(onee)  user:       25.0  user+sys:       26.0  wallclock:       37.8
  
  start of program hfig
  
  initial wavefunction generated automatically from atomic wavefunctions
 
  Irreducible     Total no   No of occupied orbitals 
  representation  orbitals   Shell_1  Shell_2    ...
  No Symm         1564        308
  ------------------------
  Orbital occupation/shell    1.000
 
  Peak memory usage:    639 Mb
  
  end of program hfig
   
 Time(hfig)  user:       38.0  user+sys:       38.0  wallclock:       56.4
  
  start of program probe
  
  Peak memory usage:    633 Mb
  
  end of program probe
   
 Time(probe)  user:       24.0  user+sys:       24.0  wallclock:       48.3
  
  start of program grid
  
  
   grid     grid set  grid #  grid sym
  ------    --------  ------  --------
  coarse        0        0        1
  medium        2        1        1
  fine          0        0        1
  ultrafine     4        2        1
  charge       -1        3        1
  gradient      4        2        1
  density       0        0        1
  DFT-fine    -13        4        1
  DFT-med.    -13        4        1
  DFT-grad    -13        4        1
  DFT-der2      0        0        1
  DFT-cphf      0        0        1
  LMP2-enrg     4        2        1
  LMP2-grad     2        1        1
  DFT-cphf2     0        0        1
  PBF-dens      0        0        1
  plotting      0        0        1
  
   
  number of gridpoints: 
     atom        C1       C2       C3       C4       C5       C6       C7
  grid # 1       97      101       94      102      100       96       92
  grid # 2      338      360      336      367      358      336      337
  grid # 3       34       29       42       47       15       46       23
  grid # 4    14816    14816    14816    14816    14816    14816    14816
   
  number of gridpoints: 
     atom        C8       C9      C10      C11      O12     Si13      C14
  grid # 1       94       96      100      100      112      472      101
  grid # 2      336      353      354      357      429      472      353
  grid # 3       47       17       10       10       22       11        8
  grid # 4    14816    14816    14816    14816    23902    22912    14816
   
  number of gridpoints: 
     atom       C15      C16      C17      C18      C19      C20     Si21
  grid # 1       97      101       96       93       96      101      471
  grid # 2      355      362      334      332      336      359      471
  grid # 3       19       25       15       19       30       10        7
  grid # 4    14816    14816    14816    14816    14816    14816    22912
   
  number of gridpoints: 
     atom       O22      C23      C24      P25      O26      O27      C28
  grid # 1      112       94       93      443      113      115       99
  grid # 2      439      336      337      443      456      431      358
  grid # 3       68       25       33        9       99       20        6
  grid # 4    23902    14816    14816    23204    23902    23902    14816
   
  number of gridpoints: 
     atom       C29      C30      C31      C32      C33      C34      C35
  grid # 1      100      100      100      102      102       93       94
  grid # 2      359      357      356      361      359      332      330
  grid # 3       10        9        8       21       21       13        8
  grid # 4    14816    14816    14816    14816    14816    14816    14816
   
  number of gridpoints: 
     atom       C36      C37      C38      C39      C40      C41      C42
  grid # 1       92       94       92       96       93       94       94
  grid # 2      337      334      336      334      335      330      335
  grid # 3       26       22       17       15       20        7       28
  grid # 4    14816    14816    14816    14816    14816    14816    14816
   
  number of gridpoints: 
     atom       C43      C44      C45      C46      C47      C48      C49
  grid # 1       97       94       96       93       93       92       94
  grid # 2      340      333      332      330      333      333      335
  grid # 3       33       31       23       20       25       21       44
  grid # 4    14816    14816    14816    14816    14816    14816    14816
   
  number of gridpoints: 
     atom       C50      C51      C52      C53      C54      C55      C56
  grid # 1       94       93       93       93       93       93       93
  grid # 2      335      335      333      334      334      333      333
  grid # 3       45       37       30       29       22       29       28
  grid # 4    14816    14816    14816    14816    14816    14816    14816
   
  number of gridpoints: 
     atom       C57      C58      C59      C60      C61      C62      C63
  grid # 1       93       94       94       94       93       93       93
  grid # 2      333      336      336      337      335      335      334
  grid # 3       19       42       46       43       39       37       33
  grid # 4    14816    14816    14816    14816    14816    14816    14816
   
  number of gridpoints: 
     atom       C64      C65      C66      C67      C68      C69      C70
  grid # 1       95       95       98       95       95       95       91
  grid # 2      332      334      359      332      332      332      324
  grid # 3       33       26       21       12       24       34        6
  grid # 4    14816    14816    14816    14816    14816    14816    14816
   
  number of gridpoints: 
     atom       N71      S72      O73      O74      C75      C76      C77
  grid # 1      100      444      123      118       97       95       95
  grid # 2      355      444      500      468      358      323      327
  grid # 3       24       12      268       64       24       10       16
  grid # 4    15000    32664    23902    23902    14816    14816    14816
   
  number of gridpoints: 
     atom       C78      C79      N80      N81      C82      C83      C84
  grid # 1       96       96      112       97       94       93       93
  grid # 2      328      336      422      342      328      328      324
  grid # 3       28       28      104        6        9       13        6
  grid # 4    14816    14816    15000    15000    14816    14816    14816
   
  number of gridpoints: 
     atom       C85      H86      H87      H88      H89      H90      H91
  grid # 1       91      112      118      118      110      118      111
  grid # 2      322      435      453      446      428      453      434
  grid # 3        6      248      420      360      174      424      226
  grid # 4    14816    16416    16416    16416    16416    16416    16416
   
  number of gridpoints: 
     atom       H92      H93      H94      H95      H96      H97      H98
  grid # 1      113      117      118      117       98      107      111
  grid # 2      427      443      449      449      385      420      435
  grid # 3      205      344      405      407       37      139      258
  grid # 4    16416    16416    16416    16416    16416    16416    16416
   
  number of gridpoints: 
     atom       H99     H100     H101     H102     H103     H104     H105
  grid # 1      111      112      111      109      108      112      109
  grid # 2      436      437      431      421      418      427      426
  grid # 3      241      264      235      145      127      221      196
  grid # 4    16416    16416    16416    16416    16416    16416    16416
   
  number of gridpoints: 
     atom      H106     H107     H108     H109     H110     H111     H112
  grid # 1      110      110      105      112      117      117      118
  grid # 2      429      427      407      439      449      451      453
  grid # 3      219      204       56      267      366      392      420
  grid # 4    16416    16416    16416    16416    16416    16416    16416
   
  number of gridpoints: 
     atom      H113     H114     H115     H116     H117     H118     H119
  grid # 1      118      118      117      117      115      113      117
  grid # 2      453      452      452      452      442      436      451
  grid # 3      425      420      408      394      317      215      383
  grid # 4    16416    16416    16416    16416    16416    16416    16416
   
  number of gridpoints: 
     atom      H120     H121     H122     H123     H124     H125     H126
  grid # 1      116      118      118      118      118      118      115
  grid # 2      444      452      453      453      451      452      440
  grid # 3      340      420      424      423      415      406      286
  grid # 4    16416    16416    16416    16416    16416    16416    16416
   
  number of gridpoints: 
     atom      H127     H128     H129     H130     H131     H132     H133
  grid # 1      118      112      103      110      117      107      105
  grid # 2      449      437      405      423      449      414      406
  grid # 3      411      286       75      175      398      143       55
  grid # 4    16416    16416    16416    16416    16416    16416    16416
   
  number of gridpoints: 
     atom      H134     H135     H136     H137     H138     H139     H140
  grid # 1      111      118      117       99      113      117      115
  grid # 2      426      447      453      398      443      459      450
  grid # 3      179      379      430       66      268      423      355
  grid # 4    16416    16416    16416    16416    16416    16416    16416
   
  number of gridpoints: 
     atom      H141    total
  grid # 1      107    16034
  grid # 2      413    54562
  grid # 3      106    18446
  grid # 4    16416  2276152
   
  Peak memory usage:    666 Mb
  
  end of program grid
   
 Time(grid)  user:      359.0  user+sys:      361.0  wallclock:      608.9
  
  start of program rwr
  
  Peak memory usage:    648 Mb
  
  end of program rwr
   
 Time(rwr)  user:       68.0  user+sys:       75.0  wallclock:      155.8
  
  start of program scf
  
 number of electrons..........        616
 number of alpha electrons....        308
 number of beta electrons.....        308
 number of orbitals, total....       1564
 number of doubly-occ'd orbs..        308
 number of open shell orbs....          0
 number of occupied orbitals..        308
 number of virtual orbitals...       1256
 number of hamiltonians.......          1
 number of shells.............          1
 SCF type: DFT=Becke_3_Parameter/HF+Slater+Becke88+VWN+LYP (B3LYP)
  
       i  u  d  i  g                   
       t  p  i  c  r                                 RMS    maximum
       e  d  i  u  i                       energy  density   DIIS  
       r  t  s  t  d       total energy    change  change    error 
  
etot    1  N  N  1  U   -4700.95443121425           3.0E-03  1.2E-01
etot    2  N  Y  1  U   -4699.28541688156 -1.7E+00  4.4E-03  1.2E-01
etot    3  N  Y  1  U   -4673.31374298661 -2.6E+01  4.2E-03  2.1E-01
etot    4  N  Y  1  U   -4702.12422430548  2.9E+01  3.2E-03  5.9E-02
etot    5  N  Y  1  U   -4682.11968205242 -2.0E+01  2.6E-03  9.6E-02
etot    6  N  Y  1  U   -4711.04614925490  2.9E+01  9.5E-04  2.7E-02
etot    7  N  Y  1  U   -4711.14668250940  1.0E-01  5.0E-04  2.4E-02
etot    8  N  Y  1  U   -4711.48382430955  3.4E-01  1.6E-04  5.7E-03
etot    9  N  Y  1  U   -4711.51935594043  3.6E-02  6.2E-05  2.1E-03
etot   10  N  Y  1  U   -4711.52216263700  2.8E-03  2.9E-05  1.8E-03
etot   11  N  Y  1  U   -4711.52365381163  1.5E-03  1.2E-05  4.3E-04
etot   12  N  Y  1  U   -4711.52386101366  2.1E-04  7.6E-06  3.0E-04
etot   13  N  Y  1  U   -4711.52393766553  7.7E-05  4.6E-06  1.3E-04
etot   14  N  N  1  U   -4711.52396574724  2.8E-05  0.0E+00  0.0E+00
  
  
 Energy components, in hartrees:
   (A)  Nuclear repulsion............   17561.42269907798
   (E)  Total one-electron terms.....  -41464.87620111644
   (F)    Electron-nuclear...........  -46139.26869936807
   (H)    Kinetic....................    4674.39249825160
   (I)  Total two-electron terms.....   19191.92953629122
   (J)    Coulomb....................   19767.03720992396
   (K)    Exchange+Correlation.......    -575.10767363274
   (L)  Electronic energy............  -22272.94666482522  (E+I)
   (M)  -V/T.........................       2.00794359214  (-(A+F+I)/H)
   (N)  Total energy.................   -4711.52396574724  (A+L)
  
 SCFE: SCF energy: DFT(b3lyp)     -4711.52396574724 hartrees   iterations:  14
  
 
 HOMO energy:    -0.20765
 LUMO energy:    -0.08887
 
  Orbital energies (hartrees): 
   -89.11053   -77.21523   -66.11208   -66.10544   -19.17947   -19.17817
   -19.14724   -19.14350   -19.09778   -19.09098   -14.38427   -14.37104
   -14.35428   -10.28472   -10.25966   -10.25354   -10.25118   -10.24961
   -10.23964   -10.23493   -10.21912   -10.21675   -10.21581   -10.21346
   -10.21316   -10.20817   -10.20798   -10.20456   -10.20436   -10.20324
   -10.20300   -10.20269   -10.20262   -10.20109   -10.20045   -10.19875
   -10.19536   -10.19516   -10.19505   -10.19445   -10.19416   -10.19341
   -10.18898   -10.18802   -10.18748   -10.18747   -10.18728   -10.18644
   -10.18627   -10.18523   -10.18487   -10.18445   -10.18425   -10.18405
   -10.18333   -10.18275   -10.18187   -10.18142   -10.18103   -10.18100
   -10.18042   -10.17983   -10.17946   -10.17922   -10.17912   -10.17775
   -10.17753   -10.17683   -10.17658   -10.17602   -10.17531   -10.17509
   -10.17478   -10.17476   -10.17446   -10.17435   -10.17423   -10.17380
   -10.17366   -10.17019   -10.16785   -10.16457   -10.16416   -10.16088
   -10.15997    -8.13720    -6.65950    -6.10227    -6.10112    -6.09994
    -5.25841    -5.25224    -4.82444    -4.82306    -4.82095    -3.61743
    -3.61702    -3.61680    -3.61136    -3.61088    -3.61041    -1.11222
    -1.08689    -1.04508    -1.00118    -0.99460    -0.97036    -0.96660
    -0.94640    -0.92354    -0.87548    -0.86762    -0.86114    -0.83913
    -0.83573    -0.83513    -0.83049    -0.82849    -0.82667    -0.81877
    -0.81853    -0.80913    -0.79796    -0.79398    -0.79014    -0.77759
    -0.75785    -0.75609    -0.74653    -0.74428    -0.74122    -0.73907
    -0.73673    -0.73459    -0.73417    -0.73264    -0.73192    -0.72985
    -0.72856    -0.72810    -0.72651    -0.72591    -0.72408    -0.72084
    -0.70834    -0.70707    -0.66370    -0.64716    -0.64589    -0.62630
    -0.62215    -0.61608    -0.61031    -0.60915    -0.60540    -0.60183
    -0.59819    -0.59577    -0.59135    -0.58952    -0.58867    -0.58790
    -0.58787    -0.58496    -0.58346    -0.58057    -0.57937    -0.57604
    -0.57603    -0.57562    -0.57202    -0.56671    -0.56468    -0.55729
    -0.54038    -0.53530    -0.52979    -0.52264    -0.51991    -0.51679
    -0.50498    -0.50411    -0.50351    -0.50266    -0.49930    -0.49793
    -0.49584    -0.49550    -0.48559    -0.48461    -0.47516    -0.47206
    -0.47024    -0.46574    -0.46436    -0.46067    -0.45795    -0.45466
    -0.45169    -0.44856    -0.44759    -0.44630    -0.44368    -0.44306
    -0.44246    -0.44050    -0.43907    -0.43567    -0.43551    -0.43450
    -0.43242    -0.43119    -0.43006    -0.42973    -0.42748    -0.42641
    -0.42593    -0.42490    -0.42417    -0.42296    -0.42109    -0.42036
    -0.41782    -0.41550    -0.41520    -0.41194    -0.41187    -0.41097
    -0.40993    -0.40829    -0.40792    -0.40651    -0.40426    -0.39980
    -0.39430    -0.39082    -0.38684    -0.38286    -0.38235    -0.37986
    -0.37859    -0.37733    -0.37504    -0.37227    -0.36794    -0.36536
    -0.36055    -0.35907    -0.35588    -0.35430    -0.35245    -0.35084
    -0.35003    -0.34800    -0.34594    -0.34275    -0.34266    -0.33857
    -0.33622    -0.33482    -0.33424    -0.33124    -0.32984    -0.32800
    -0.32741    -0.32622    -0.32369    -0.32038    -0.31855    -0.31749
    -0.31538    -0.31367    -0.30519    -0.30315    -0.30136    -0.30098
    -0.29345    -0.29149    -0.28717    -0.28608    -0.28561    -0.28224
    -0.28122    -0.27955    -0.27834    -0.27233    -0.27184    -0.26647
    -0.26012    -0.25837    -0.25678    -0.24668    -0.24578    -0.24551
    -0.24461    -0.24281    -0.23928    -0.23853    -0.23825    -0.23665
    -0.23593    -0.23311    -0.23098    -0.23048    -0.22819    -0.22727
    -0.22087    -0.20765    -0.08887    -0.04941    -0.04868    -0.03104
    -0.02735    -0.01681    -0.01459    -0.01332    -0.01202    -0.00832
 
  Peak memory usage:    843 Mb
  
  end of program scf
   
 Time(scf)  user:     9714.0  user+sys:     9816.0  wallclock:    15838.5
  
  start of program ch
  
  gridpoints used for charge fit        15937
    out of a possible maximum of        18446
  
   Electrostatic potential fitting constrained to reproduce
     total charge:                yes
     dipole moment:               no 
     traceless quadrupole moment: no 
     traceless octapole moment:   no 
  
  Atomic charges from electrostatic potential: 
   
 Atom       C1           C2           C3           C4           C5      
 Charge   -0.10510      0.03930     -0.16670      0.15760     -0.09382
   
 Atom       C6           C7           C8           C9           C10     
 Charge   -0.19560     -0.33346     -0.10148      0.08533     -0.00134
   
 Atom       C11          O12          Si13         C14          C15     
 Charge    0.14664     -0.28040     -0.17712      0.12543      0.11025
   
 Atom       C16          C17          C18          C19          C20     
 Charge    0.14341     -0.16890     -0.34717     -0.19035      0.00055
   
 Atom       Si21         O22          C23          C24          P25     
 Charge    0.00593     -0.19809     -0.14519     -0.10798      0.79934
   
 Atom       O26          O27          C28          C29          C30     
 Charge   -0.58245     -0.54195      0.34999      0.13154      0.15254
   
 Atom       C31          C32          C33          C34          C35     
 Charge    0.04371      0.00735      0.06353     -0.31017     -0.23842
   
 Atom       C36          C37          C38          C39          C40     
 Charge   -0.14883     -0.18761     -0.14292     -0.16142     -0.06238
   
 Atom       C41          C42          C43          C44          C45     
 Charge   -0.01035     -0.09999     -0.05745     -0.20337     -0.02389
   
 Atom       C46          C47          C48          C49          C50     
 Charge   -0.07703     -0.14172     -0.08581     -0.11372     -0.14258
   
 Atom       C51          C52          C53          C54          C55     
 Charge   -0.09150     -0.14708     -0.12002     -0.09968     -0.20792
   
 Atom       C56          C57          C58          C59          C60     
 Charge   -0.06473     -0.19042     -0.14702     -0.09554     -0.16344
   
 Atom       C61          C62          C63          C64          C65     
 Charge   -0.11905     -0.10595     -0.14186     -0.14834     -0.15506
   
 Atom       C66          C67          C68          C69          C70     
 Charge    0.07360      0.13797     -0.16892     -0.11624      0.02320
   
 Atom       N71          S72          O73          O74          C75     
 Charge   -0.44874      0.70158     -0.43269     -0.42823      0.64202
   
 Atom       C76          C77          C78          C79          N80     
 Charge   -0.52420      0.35570     -0.49016      0.41183     -0.64281
   
 Atom       N81          C82          C83          C84          C85     
 Charge   -0.15972     -0.11468     -0.10534     -0.23105      0.03535
   
 Atom       H86          H87          H88          H89          H90     
 Charge    0.10157      0.13207      0.12775      0.16129      0.11912
   
 Atom       H91          H92          H93          H94          H95     
 Charge    0.11668      0.18485      0.12817      0.13070      0.11600
   
 Atom       H96          H97          H98          H99          H100    
 Charge    0.33238      0.14743      0.13063      0.09258      0.12319
   
 Atom       H101         H102         H103         H104         H105    
 Charge    0.11049      0.11578      0.09535      0.08011      0.11228
   
 Atom       H106         H107         H108         H109         H110    
 Charge    0.05991      0.14489      0.01167      0.09867      0.11058
   
 Atom       H111         H112         H113         H114         H115    
 Charge    0.11259      0.11650      0.11993      0.11040      0.12687
   
 Atom       H116         H117         H118         H119         H120    
 Charge    0.12090      0.08924      0.12586      0.11353      0.11617
   
 Atom       H121         H122         H123         H124         H125    
 Charge    0.11737      0.11293      0.12628      0.11857      0.11452
   
 Atom       H126         H127         H128         H129         H130    
 Charge    0.09755      0.13594      0.12119     -0.00098      0.12762
   
 Atom       H131         H132         H133         H134         H135    
 Charge    0.12655      0.15910      0.21235      0.01598      0.17878
   
 Atom       H136         H137         H138         H139         H140    
 Charge    0.04897      0.38067      0.18567      0.13812      0.16662
   
 Atom       H141    
 Charge    0.14152
  
  sum of atomic charges:     0.000000
   
 RMS Error   9.15E-04 hartrees
 
  Peak memory usage:    584 Mb
  
  end of program ch
   
 Time(ch)  user:       19.0  user+sys:       20.0  wallclock:       42.5
  
  start of program post
  
  Writing input files for PBF
  Peak memory usage:    534 Mb
  
  end of program post
   
 Time(post)  user:        0.0  user+sys:        0.0  wallclock:        0.5

  start of program pbf

Pbf Version 4.00

Molecular surface area:      802.40591   [A2]
Reaction field energy:       -14.81982   [kT]
  Peak memory usage: 555 Mb

  end of program pbf

 Time(pbf)  user:        8.9  user+sys:        9.0  wallclock:       13.1
  
  start of program solv
  
   number of surface charges from PBF   12760
   sum of surface charges     -0.00020
   
  nuclear repulsion energy.......   17561.422699078 hartrees
  Peak memory usage:    694 Mb
  
  end of program solv
   
 Time(solv)  user:       35.0  user+sys:       35.0  wallclock:       54.5
  
  start of program scf
  
  
       i  u  d  i  g                   
       t  p  i  c  r                                 RMS    maximum
       e  d  i  u  i                       energy  density   DIIS  
       r  t  s  t  d       total energy    change  change    error 
  
etot    1  N  N  1  U   -4711.55524195288           6.7E-05  1.2E-03
etot    2  N  Y  1  U   -4711.55548756334  2.5E-04  2.7E-05  1.7E-03
etot    3  N  Y  1  U   -4711.55612119319  6.3E-04  9.0E-06  6.3E-04
etot    4  N  Y  1  U   -4711.55622341725  1.0E-04  3.8E-06  1.7E-04
etot    5  N  N  1  U   -4711.55623962701  1.6E-05  0.0E+00  0.0E+00
  
  
 Energy components, in hartrees:
   (A)  Total zero-electron terms....   17563.57802933033
   (B)    Nuclear-nuclear............   17561.42269907798
   (C)    Nuclear-solvent............       2.15533025235
   (E)  Total one-electron terms.....  -41468.38756245100
   (F)    Electron-nuclear...........  -46140.64183498273
   (G)    Electron-solvent...........      -2.18858044719
   (H)    Kinetic....................    4674.44285297892
   (I)  Total two-electron terms.....   19193.25329349366
   (J)    Coulomb....................   19768.37916112295
   (K)    Exchange+Correlation.......    -575.12586762929
   (L)  Electronic energy............  -22275.13426895734  (E+I)
   (N)  Total quantum mech. energy...   -4711.55623962701  (A+L)
   (O)  Gas phase energy.............   -4711.52396574724
   (P)  Solution phase energy........   -4711.53961452959  (Q+R+S)
   (Q)    Total solute energy........   -4711.52298943217  (N-C-G)
   (R)    Total solvent energy.......      -0.01662509742  (C/2+G/2)
   (S)    Solute cavity energy.......       0.00000000000
   (U)  Reorganization energy........       0.00097631507  (Q-O)
   (V)  Solvation energy.............      -0.01564878235  (P-O)
  
 SCFE:  Solution phase energy: DFT(b3lyp)      -4711.53961452959 hartrees
        SCF iterations:   5
  
 
 HOMO energy:    -0.20860
 LUMO energy:    -0.08760
 
  Orbital energies (hartrees): 
   -89.11606   -77.21769   -66.11363   -66.10827   -19.18146   -19.17970
   -19.15347   -19.14757   -19.09975   -19.09299   -14.38312   -14.37432
   -14.35675   -10.28451   -10.26248   -10.25436   -10.25293   -10.24669
   -10.24037   -10.23406   -10.22005   -10.21621   -10.21529   -10.21411
   -10.21019   -10.20803   -10.20445   -10.20427   -10.20304   -10.20101
   -10.20093   -10.20047   -10.20028   -10.20012   -10.19914   -10.19720
   -10.19641   -10.19541   -10.19468   -10.19433   -10.19329   -10.19254
   -10.19131   -10.18936   -10.18914   -10.18897   -10.18848   -10.18829
   -10.18754   -10.18670   -10.18621   -10.18617   -10.18580   -10.18513
   -10.18488   -10.18488   -10.18461   -10.18430   -10.18372   -10.18334
   -10.18273   -10.18136   -10.18111   -10.18100   -10.18080   -10.18009
   -10.17982   -10.17914   -10.17911   -10.17848   -10.17809   -10.17771
   -10.17739   -10.17726   -10.17706   -10.17695   -10.17625   -10.17624
   -10.17607   -10.17200   -10.16882   -10.16757   -10.16617   -10.16388
   -10.16278    -8.14266    -6.66189    -6.10766    -6.10666    -6.10540
    -5.25996    -5.25507    -4.82684    -4.82546    -4.82335    -3.61896
    -3.61857    -3.61836    -3.61419    -3.61373    -3.61325    -1.11788
    -1.08873    -1.04692    -1.00713    -0.99325    -0.97227    -0.96914
    -0.94854    -0.92570    -0.87623    -0.86509    -0.86243    -0.84126
    -0.83843    -0.83723    -0.83268    -0.83158    -0.82965    -0.82001
    -0.81934    -0.81016    -0.79793    -0.79290    -0.79103    -0.77631
    -0.75688    -0.75480    -0.74789    -0.74398    -0.74215    -0.74090
    -0.73802    -0.73762    -0.73540    -0.73419    -0.73319    -0.73262
    -0.73048    -0.73021    -0.72889    -0.72781    -0.72683    -0.72369
    -0.70911    -0.70787    -0.66401    -0.64844    -0.64683    -0.62588
    -0.62251    -0.61670    -0.61208    -0.60837    -0.60619    -0.60085
    -0.59935    -0.59448    -0.59302    -0.59156    -0.59123    -0.58907
    -0.58650    -0.58607    -0.58493    -0.58288    -0.58089    -0.57846
    -0.57711    -0.57673    -0.57468    -0.56662    -0.56451    -0.55779
    -0.54157    -0.53428    -0.53104    -0.52445    -0.52088    -0.51913
    -0.50592    -0.50502    -0.50455    -0.50354    -0.50090    -0.49929
    -0.49818    -0.49486    -0.48759    -0.48631    -0.47412    -0.47293
    -0.47034    -0.46661    -0.46498    -0.46026    -0.45843    -0.45487
    -0.45250    -0.45021    -0.44724    -0.44711    -0.44481    -0.44412
    -0.44376    -0.44158    -0.44065    -0.43711    -0.43642    -0.43494
    -0.43263    -0.43227    -0.42981    -0.42970    -0.42882    -0.42848
    -0.42722    -0.42603    -0.42527    -0.42491    -0.42288    -0.42138
    -0.41909    -0.41674    -0.41647    -0.41426    -0.41194    -0.40987
    -0.40986    -0.40936    -0.40844    -0.40678    -0.40504    -0.40134
    -0.39523    -0.39146    -0.38813    -0.38481    -0.38366    -0.38162
    -0.38012    -0.37776    -0.37506    -0.37245    -0.36796    -0.36592
    -0.36090    -0.35954    -0.35806    -0.35475    -0.35368    -0.35192
    -0.35145    -0.34924    -0.34848    -0.34547    -0.34459    -0.33966
    -0.33875    -0.33787    -0.33593    -0.33248    -0.33226    -0.32917
    -0.32877    -0.32863    -0.32589    -0.32507    -0.32016    -0.31935
    -0.31892    -0.31550    -0.30859    -0.30693    -0.30356    -0.30313
    -0.29485    -0.29345    -0.28868    -0.28770    -0.28693    -0.28430
    -0.28255    -0.28190    -0.27770    -0.27697    -0.27351    -0.26830
    -0.25988    -0.25771    -0.25663    -0.24928    -0.24898    -0.24822
    -0.24659    -0.24597    -0.24132    -0.24032    -0.24002    -0.23810
    -0.23704    -0.23653    -0.23319    -0.23290    -0.23145    -0.22992
    -0.22224    -0.20860    -0.08760    -0.05104    -0.04976    -0.03246
    -0.02927    -0.01770    -0.01582    -0.01217    -0.01034    -0.00993
 
  Peak memory usage:    839 Mb
  
  end of program scf
   
 Time(scf)  user:     2802.0  user+sys:     2833.0  wallclock:     4594.6
  
  start of program sole
  
    SCRF                   solvation energy
  iteration          Hartrees            kcal/mol
     0               0.0000000            0.0000
     1              -0.0156488           -9.8198
  
  solvation energy not yet converged... 
  
  Peak memory usage:    634 Mb
  
  end of program sole
   
 Time(sole)  user:        0.0  user+sys:        0.0  wallclock:        0.4
  
  start of program ch
  
  gridpoints used for charge fit        15937
    out of a possible maximum of        15937
  
   Electrostatic potential fitting constrained to reproduce
     total charge:                yes
     dipole moment:               no 
     traceless quadrupole moment: no 
     traceless octapole moment:   no 
  
  Atomic charges from electrostatic potential: 
   
 Atom       C1           C2           C3           C4           C5      
 Charge   -0.10668      0.03791     -0.17523      0.16094     -0.09390
   
 Atom       C6           C7           C8           C9           C10     
 Charge   -0.20394     -0.34854     -0.10644      0.06726      0.00635
   
 Atom       C11          O12          Si13         C14          C15     
 Charge    0.16960     -0.26460     -0.20376      0.12633      0.08357
   
 Atom       C16          C17          C18          C19          C20     
 Charge    0.14177     -0.17372     -0.35786     -0.19473      0.02564
   
 Atom       Si21         O22          C23          C24          P25     
 Charge   -0.01122     -0.18040     -0.15028     -0.11276      0.77918
   
 Atom       O26          O27          C28          C29          C30     
 Charge   -0.58461     -0.52922      0.36461      0.13664      0.16095
   
 Atom       C31          C32          C33          C34          C35     
 Charge    0.04684      0.00323      0.06626     -0.31770     -0.24349
   
 Atom       C36          C37          C38          C39          C40     
 Charge   -0.15114     -0.19263     -0.15053     -0.16672     -0.06800
   
 Atom       C41          C42          C43          C44          C45     
 Charge   -0.00646     -0.10236     -0.05690     -0.21931     -0.02056
   
 Atom       C46          C47          C48          C49          C50     
 Charge   -0.08430     -0.14549     -0.09407     -0.12235     -0.14859
   
 Atom       C51          C52          C53          C54          C55     
 Charge   -0.09738     -0.15140     -0.13151     -0.10315     -0.21704
   
 Atom       C56          C57          C58          C59          C60     
 Charge   -0.06945     -0.19798     -0.15327     -0.10208     -0.17262
   
 Atom       C61          C62          C63          C64          C65     
 Charge   -0.12441     -0.11291     -0.14984     -0.15356     -0.16085
   
 Atom       C66          C67          C68          C69          C70     
 Charge    0.08055      0.14178     -0.17566     -0.11798     -0.00175
   
 Atom       N71          S72          O73          O74          C75     
 Charge   -0.43512      0.71646     -0.46223     -0.42745      0.64433
   
 Atom       C76          C77          C78          C79          N80     
 Charge   -0.51349      0.35323     -0.49400      0.42643     -0.67910
   
 Atom       N81          C82          C83          C84          C85     
 Charge   -0.18238     -0.11728     -0.09739     -0.24119      0.05575
   
 Atom       H86          H87          H88          H89          H90     
 Charge    0.10421      0.13996      0.13387      0.16723      0.12660
   
 Atom       H91          H92          H93          H94          H95     
 Charge    0.11960      0.19149      0.13459      0.13806      0.12313
   
 Atom       H96          H97          H98          H99          H100    
 Charge    0.32104      0.15244      0.13354      0.09268      0.12700
   
 Atom       H101         H102         H103         H104         H105    
 Charge    0.11449      0.11868      0.09608      0.08283      0.11668
   
 Atom       H106         H107         H108         H109         H110    
 Charge    0.05926      0.15342      0.00875      0.10342      0.11671
   
 Atom       H111         H112         H113         H114         H115    
 Charge    0.11854      0.12385      0.12689      0.11742      0.13285
   
 Atom       H116         H117         H118         H119         H120    
 Charge    0.12793      0.09279      0.12884      0.12017      0.12324
   
 Atom       H121         H122         H123         H124         H125    
 Charge    0.12448      0.12022      0.13400      0.12553      0.12153
   
 Atom       H126         H127         H128         H129         H130    
 Charge    0.10325      0.14284      0.12894      0.00109      0.13194
   
 Atom       H131         H132         H133         H134         H135    
 Charge    0.13258      0.16942      0.20180      0.02152      0.18810
   
 Atom       H136         H137         H138         H139         H140    
 Charge    0.05693      0.39242      0.19344      0.14334      0.17697
   
 Atom       H141    
 Charge    0.13674
  
  sum of atomic charges:     0.000000
   
 RMS Error   9.26E-04 hartrees
 
  Peak memory usage:    582 Mb
  
  end of program ch
   
 Time(ch)  user:       17.0  user+sys:       18.0  wallclock:       29.5
  
  start of program post
  
  Writing input files for PBF
  Peak memory usage:    534 Mb
  
  end of program post
   
 Time(post)  user:        0.0  user+sys:        0.0  wallclock:        0.5

  start of program pbf

Pbf Version 4.00

Molecular surface area:      802.40591   [A2]
Reaction field energy:       -17.11685   [kT]
  Peak memory usage: 555 Mb

  end of program pbf

 Time(pbf)  user:        8.7  user+sys:        8.8  wallclock:       17.7
  
  start of program solv
  
   number of surface charges from PBF   12760
   sum of surface charges     -0.00022
   
  nuclear repulsion energy.......   17561.422699078 hartrees
  Peak memory usage:    694 Mb
  
  end of program solv
   
 Time(solv)  user:       35.0  user+sys:       35.0  wallclock:       67.9
  
  start of program scf
  
  
       i  u  d  i  g                   
       t  p  i  c  r                                 RMS    maximum
       e  d  i  u  i                       energy  density   DIIS  
       r  t  s  t  d       total energy    change  change    error 
  
etot    1  N  N  1  U   -4711.55868869582           8.7E-06  1.3E-04
etot    2  N  N  1  U   -4711.55866473709 -2.4E-05  0.0E+00  0.0E+00
  
  
 Energy components, in hartrees:
   (A)  Total zero-electron terms....   17563.80129152866
   (B)    Nuclear-nuclear............   17561.42269907798
   (C)    Nuclear-solvent............       2.37859245068
   (E)  Total one-electron terms.....  -41469.05743263593
   (F)    Electron-nuclear...........  -46141.10383873736
   (G)    Electron-solvent...........      -2.41466566886
   (H)    Kinetic....................    4674.46107177028
   (I)  Total two-electron terms.....   19193.69747637018
   (J)    Coulomb....................   19768.82627561345
   (K)    Exchange+Correlation.......    -575.12879924328
   (L)  Electronic energy............  -22275.35995626576  (E+I)
   (N)  Total quantum mech. energy...   -4711.55866473709  (A+L)
   (O)  Gas phase energy.............   -4711.52396574724
   (P)  Solution phase energy........   -4711.54062812801  (Q+R+S)
   (Q)    Total solute energy........   -4711.52259151892  (N-C-G)
   (R)    Total solvent energy.......      -0.01803660909  (C/2+G/2)
   (S)    Solute cavity energy.......       0.00000000000
   (U)  Reorganization energy........       0.00137422832  (Q-O)
   (V)  Solvation energy.............      -0.01666238077  (P-O)
  
 SCFE:  Solution phase energy: DFT(b3lyp)      -4711.54062812801 hartrees
        SCF iterations:   2
  
 
 HOMO energy:    -0.22842
 LUMO energy:    -0.08643
 
  Orbital energies (hartrees): 
   -59.64678   -56.43219   -49.83708   -47.55569   -45.93474   -25.41262
   -22.91363   -20.34489   -19.00871   -18.74232   -18.61387   -15.45931
   -15.16747   -13.80843   -13.44364   -13.24689   -13.18097   -13.02217
   -12.99617   -12.88467   -12.26021   -10.97361   -10.95249   -10.89939
   -10.89383   -10.81714   -10.77987   -10.58555   -10.56335   -10.39072
   -10.38006   -10.36588   -10.35574   -10.32690   -10.23970   -10.22326
   -10.21231   -10.21163   -10.18567   -10.17577   -10.17517   -10.14502
   -10.14274   -10.13696   -10.12842   -10.12477   -10.10298   -10.07236
   -10.04172    -9.96081    -9.95509    -9.94868    -9.94603    -9.94254
    -9.94022    -9.93766    -9.92029    -9.86119    -9.83848    -9.83011
    -9.80685    -9.74956    -9.70233    -9.69084    -9.66409    -9.61217
    -9.60604    -9.52156    -9.49832    -9.47725    -9.43239    -9.35197
    -9.32787    -9.28872    -9.20470    -9.07085    -9.06839    -9.05993
    -9.02765    -8.99072    -8.98478    -8.98299    -8.88797    -8.87133
    -8.86779    -8.78096    -8.76636    -8.76047    -8.49260    -8.34942
    -8.33445    -7.85099    -7.31459    -7.30743    -6.62783    -6.42094
    -6.31043    -6.18653    -6.09183    -5.73712    -5.38045    -1.11266
    -0.89320    -0.87893    -0.87743    -0.85674    -0.85597    -0.83849
    -0.82884    -0.82214    -0.81753    -0.81118    -0.80123    -0.80094
    -0.79909    -0.79140    -0.78161    -0.77913    -0.77170    -0.76708
    -0.76034    -0.74518    -0.74317    -0.74299    -0.73993    -0.73504
    -0.72609    -0.72401    -0.72261    -0.72125    -0.72115    -0.71242
    -0.70895    -0.70813    -0.70342    -0.70203    -0.70046    -0.69738
    -0.68767    -0.68610    -0.68315    -0.68260    -0.67961    -0.65696
    -0.65403    -0.63439    -0.63220    -0.62494    -0.61997    -0.61894
    -0.61647    -0.61583    -0.61116    -0.59954    -0.59515    -0.58838
    -0.58821    -0.58656    -0.58164    -0.58104    -0.57996    -0.57377
    -0.57341    -0.55745    -0.55298    -0.55223    -0.55173    -0.55130
    -0.55079    -0.54884    -0.54663    -0.54292    -0.54263    -0.53760
    -0.53674    -0.53216    -0.52703    -0.52425    -0.51852    -0.51661
    -0.51648    -0.51590    -0.51346    -0.51093    -0.51061    -0.51009
    -0.50816    -0.50418    -0.50129    -0.49887    -0.49874    -0.49631
    -0.49122    -0.48957    -0.48689    -0.48558    -0.48459    -0.48351
    -0.48053    -0.48038    -0.47103    -0.47077    -0.47006    -0.46823
    -0.46529    -0.46471    -0.46275    -0.46264    -0.46202    -0.45855
    -0.45722    -0.45549    -0.45497    -0.45446    -0.45212    -0.44993
    -0.44906    -0.44864    -0.44851    -0.44818    -0.44536    -0.44498
    -0.44342    -0.44202    -0.44052    -0.43899    -0.43583    -0.43304
    -0.43192    -0.43022    -0.42985    -0.42926    -0.42918    -0.42692
    -0.42394    -0.41509    -0.41439    -0.41400    -0.41162    -0.40956
    -0.40890    -0.40689    -0.40607    -0.40575    -0.40533    -0.40511
    -0.40456    -0.40314    -0.40103    -0.40021    -0.39983    -0.39712
    -0.39409    -0.39388    -0.39361    -0.39235    -0.39045    -0.38943
    -0.38873    -0.38616    -0.38535    -0.38457    -0.38396    -0.38246
    -0.38147    -0.38124    -0.37960    -0.37881    -0.37753    -0.37552
    -0.37337    -0.37257    -0.37174    -0.36900    -0.36870    -0.35506
    -0.35073    -0.34783    -0.34375    -0.34253    -0.33593    -0.33113
    -0.32942    -0.32860    -0.32737    -0.32631    -0.32461    -0.32396
    -0.31750    -0.31119    -0.30552    -0.29711    -0.29438    -0.29385
    -0.28948    -0.28670    -0.28466    -0.27575    -0.27495    -0.27333
    -0.26733    -0.26706    -0.26633    -0.26319    -0.25613    -0.24722
    -0.24022    -0.22842    -0.08643    -0.05024    -0.04944    -0.03187
    -0.02919    -0.01734    -0.01564    -0.01158    -0.01015    -0.00932
 
  Peak memory usage:    839 Mb
  
  end of program scf
   
 Time(scf)  user:      738.0  user+sys:      746.0  wallclock:     1213.3
  
  start of program sole
  
    SCRF                   solvation energy
  iteration          Hartrees            kcal/mol
     0               0.0000000            0.0000
     1              -0.0156488           -9.8198
     2              -0.0166624          -10.4558
  
  solvation energy not yet converged... 
  
  Peak memory usage:    634 Mb
  
  end of program sole
   
 Time(sole)  user:        0.0  user+sys:        0.0  wallclock:        0.3
  
  start of program ch
  
  gridpoints used for charge fit        15937
    out of a possible maximum of        15937
  
   Electrostatic potential fitting constrained to reproduce
     total charge:                yes
     dipole moment:               no 
     traceless quadrupole moment: no 
     traceless octapole moment:   no 
  
  Atomic charges from electrostatic potential: 
   
 Atom       C1           C2           C3           C4           C5      
 Charge   -0.10758      0.03757     -0.17510      0.16140     -0.09416
   
 Atom       C6           C7           C8           C9           C10     
 Charge   -0.20465     -0.35030     -0.10625      0.06461      0.00603
   
 Atom       C11          O12          Si13         C14          C15     
 Charge    0.17204     -0.26184     -0.20643      0.12776      0.07909
   
 Atom       C16          C17          C18          C19          C20     
 Charge    0.14121     -0.17445     -0.35795     -0.19465      0.02759
   
 Atom       Si21         O22          C23          C24          P25     
 Charge   -0.01328     -0.17745     -0.14964     -0.11201      0.77339
   
 Atom       O26          O27          C28          C29          C30     
 Charge   -0.58164     -0.52676      0.36543      0.13648      0.16204
   
 Atom       C31          C32          C33          C34          C35     
 Charge    0.04690      0.00214      0.06496     -0.31891     -0.24505
   
 Atom       C36          C37          C38          C39          C40     
 Charge   -0.15125     -0.19279     -0.15120     -0.16682     -0.06905
   
 Atom       C41          C42          C43          C44          C45     
 Charge   -0.00603     -0.10269     -0.05729     -0.22101     -0.02092
   
 Atom       C46          C47          C48          C49          C50     
 Charge   -0.08495     -0.14509     -0.09374     -0.12333     -0.14852
   
 Atom       C51          C52          C53          C54          C55     
 Charge   -0.09794     -0.15128     -0.13336     -0.10353     -0.21833
   
 Atom       C56          C57          C58          C59          C60     
 Charge   -0.06976     -0.19751     -0.15348     -0.10211     -0.17299
   
 Atom       C61          C62          C63          C64          C65     
 Charge   -0.12474     -0.11216     -0.15015     -0.15129     -0.16205
   
 Atom       C66          C67          C68          C69          C70     
 Charge    0.07739      0.14108     -0.17430     -0.11602     -0.00730
   
 Atom       N71          S72          O73          O74          C75     
 Charge   -0.43826      0.71234     -0.46355     -0.42315      0.64209
   
 Atom       C76          C77          C78          C79          N80     
 Charge   -0.51208      0.35452     -0.49224      0.42737     -0.68428
   
 Atom       N81          C82          C83          C84          C85     
 Charge   -0.18145     -0.11387     -0.09243     -0.24155      0.05767
   
 Atom       H86          H87          H88          H89          H90     
 Charge    0.10453      0.14071      0.13429      0.16800      0.12736
   
 Atom       H91          H92          H93          H94          H95     
 Charge    0.11957      0.19211      0.13505      0.13862      0.12383
   
 Atom       H96          H97          H98          H99          H100    
 Charge    0.31965      0.15290      0.13362      0.09239      0.12708
   
 Atom       H101         H102         H103         H104         H105    
 Charge    0.11463      0.11881      0.09553      0.08295      0.11695
   
 Atom       H106         H107         H108         H109         H110    
 Charge    0.05910      0.15411      0.00893      0.10402      0.11754
   
 Atom       H111         H112         H113         H114         H115    
 Charge    0.11898      0.12460      0.12762      0.11822      0.13326
   
 Atom       H116         H117         H118         H119         H120    
 Charge    0.12845      0.09311      0.12875      0.12082      0.12415
   
 Atom       H121         H122         H123         H124         H125    
 Charge    0.12526      0.12097      0.13469      0.12611      0.12209
   
 Atom       H126         H127         H128         H129         H130    
 Charge    0.10406      0.14322      0.12995      0.00058      0.13177
   
 Atom       H131         H132         H133         H134         H135    
 Charge    0.13278      0.17048      0.20067      0.02194      0.18952
   
 Atom       H136         H137         H138         H139         H140    
 Charge    0.05810      0.39065      0.19339      0.14332      0.17773
   
 Atom       H141    
 Charge    0.13535
  
  sum of atomic charges:     0.000000
   
 RMS Error   9.28E-04 hartrees
 
  Peak memory usage:    582 Mb
  
  end of program ch
   
 Time(ch)  user:       17.0  user+sys:       17.0  wallclock:       35.8
  
  start of program post
  
  Writing input files for PBF
  Peak memory usage:    534 Mb
  
  end of program post
   
 Time(post)  user:        0.0  user+sys:        0.0  wallclock:        0.4

  start of program pbf

Pbf Version 4.00

Molecular surface area:      802.40591   [A2]
Reaction field energy:       -17.51626   [kT]
  Peak memory usage: 555 Mb

  end of program pbf

 Time(pbf)  user:        7.8  user+sys:        7.9  wallclock:       15.8
  
  start of program solv
  
   number of surface charges from PBF   12760
   sum of surface charges     -0.00023
   
  nuclear repulsion energy.......   17561.422699078 hartrees
  Peak memory usage:    694 Mb
  
  end of program solv
   
 Time(solv)  user:       34.0  user+sys:       34.0  wallclock:       60.3
  
  start of program scf
  
  
       i  u  d  i  g                   
       t  p  i  c  r                                 RMS    maximum
       e  d  i  u  i                       energy  density   DIIS  
       r  t  s  t  d       total energy    change  change    error 
  
etot    1  N  N  1  U   -4711.55905854177           1.4E-05  2.7E-04
etot    2  N  Y  1  U   -4711.55888381370 -1.7E-04  9.9E-06  6.9E-04
etot    3  N  Y  1  U   -4711.55909071710  2.1E-04  5.1E-07  1.6E-05
etot    4  N  N  1  U   -4711.55909100868  2.9E-07  0.0E+00  0.0E+00
  
  
 Energy components, in hartrees:
   (A)  Total zero-electron terms....   17563.85499108460
   (B)    Nuclear-nuclear............   17561.42269907798
   (C)    Nuclear-solvent............       2.43229200661
   (E)  Total one-electron terms.....  -41468.87456745783
   (F)    Electron-nuclear...........  -46140.85214176986
   (G)    Electron-solvent...........      -2.46864974425
   (H)    Kinetic....................    4674.44622405628
   (I)  Total two-electron terms.....   19193.46048536456
   (J)    Coulomb....................   19768.58750176507
   (K)    Exchange+Correlation.......    -575.12701640051
   (L)  Electronic energy............  -22275.41408209327  (E+I)
   (N)  Total quantum mech. energy...   -4711.55909100868  (A+L)
   (O)  Gas phase energy.............   -4711.52396574724
   (P)  Solution phase energy........   -4711.54091213986  (Q+R+S)
   (Q)    Total solute energy........   -4711.52273327104  (N-C-G)
   (R)    Total solvent energy.......      -0.01817886882  (C/2+G/2)
   (S)    Solute cavity energy.......       0.00000000000
   (U)  Reorganization energy........       0.00123247620  (Q-O)
   (V)  Solvation energy.............      -0.01694639262  (P-O)
  
 SCFE:  Solution phase energy: DFT(b3lyp)      -4711.54091213986 hartrees
        SCF iterations:   4
  
 
 HOMO energy:    -0.20864
 LUMO energy:    -0.08715
 
  Orbital energies (hartrees): 
   -89.11616   -77.21772   -66.11364   -66.10865   -19.18176   -19.17964
   -19.15529   -19.14936   -19.09948   -19.09355   -14.38296   -14.37305
   -14.35746   -10.28354   -10.26279   -10.25412   -10.25313   -10.24672
   -10.24019   -10.23366   -10.22024   -10.21600   -10.21568   -10.21316
   -10.20951   -10.20819   -10.20464   -10.20352   -10.20294   -10.20113
   -10.20046   -10.20016   -10.20010   -10.19986   -10.19865   -10.19695
   -10.19674   -10.19539   -10.19454   -10.19414   -10.19329   -10.19226
   -10.19159   -10.18943   -10.18927   -10.18917   -10.18854   -10.18838
   -10.18762   -10.18676   -10.18642   -10.18636   -10.18583   -10.18519
   -10.18515   -10.18492   -10.18487   -10.18472   -10.18407   -10.18361
   -10.18286   -10.18150   -10.18132   -10.18123   -10.18095   -10.18071
   -10.17990   -10.17970   -10.17937   -10.17871   -10.17849   -10.17798
   -10.17796   -10.17788   -10.17718   -10.17714   -10.17650   -10.17632
   -10.17602   -10.17231   -10.16896   -10.16808   -10.16626   -10.16460
   -10.16309    -8.14284    -6.66193    -6.10782    -6.10685    -6.10556
    -5.25999    -5.25546    -4.82687    -4.82549    -4.82338    -3.61899
    -3.61860    -3.61839    -3.61457    -3.61412    -3.61363    -1.11869
    -1.08879    -1.04703    -1.00824    -0.99302    -0.97229    -0.96953
    -0.94812    -0.92572    -0.87629    -0.86456    -0.86255    -0.84146
    -0.83881    -0.83734    -0.83287    -0.83204    -0.83003    -0.82022
    -0.81936    -0.81020    -0.79789    -0.79257    -0.79111    -0.77592
    -0.75694    -0.75431    -0.74799    -0.74433    -0.74183    -0.74109
    -0.73812    -0.73798    -0.73549    -0.73432    -0.73329    -0.73307
    -0.73079    -0.73033    -0.72916    -0.72798    -0.72717    -0.72409
    -0.70898    -0.70790    -0.66383    -0.64861    -0.64688    -0.62572
    -0.62241    -0.61673    -0.61227    -0.60816    -0.60626    -0.60056
    -0.59945    -0.59408    -0.59324    -0.59184    -0.59150    -0.58919
    -0.58666    -0.58642    -0.58452    -0.58317    -0.58104    -0.57878
    -0.57723    -0.57677    -0.57510    -0.56661    -0.56436    -0.55769
    -0.54164    -0.53394    -0.53116    -0.52471    -0.52098    -0.51941
    -0.50602    -0.50512    -0.50471    -0.50361    -0.50109    -0.49942
    -0.49854    -0.49461    -0.48792    -0.48643    -0.47391    -0.47300
    -0.47029    -0.46674    -0.46497    -0.46023    -0.45845    -0.45516
    -0.45259    -0.45030    -0.44734    -0.44689    -0.44509    -0.44418
    -0.44385    -0.44169    -0.44086    -0.43727    -0.43665    -0.43482
    -0.43274    -0.43247    -0.42977    -0.42936    -0.42904    -0.42871
    -0.42726    -0.42623    -0.42545    -0.42492    -0.42306    -0.42145
    -0.41928    -0.41692    -0.41658    -0.41458    -0.41204    -0.41007
    -0.40977    -0.40927    -0.40852    -0.40667    -0.40481    -0.40154
    -0.39528    -0.39155    -0.38825    -0.38500    -0.38378    -0.38192
    -0.38028    -0.37793    -0.37476    -0.37242    -0.36810    -0.36572
    -0.36102    -0.35927    -0.35823    -0.35487    -0.35400    -0.35201
    -0.35146    -0.34906    -0.34877    -0.34570    -0.34480    -0.34016
    -0.33902    -0.33810    -0.33608    -0.33261    -0.33258    -0.32941
    -0.32907    -0.32882    -0.32628    -0.32578    -0.32050    -0.31960
    -0.31915    -0.31565    -0.30941    -0.30715    -0.30373    -0.30341
    -0.29496    -0.29360    -0.28883    -0.28783    -0.28706    -0.28455
    -0.28276    -0.28223    -0.27778    -0.27730    -0.27359    -0.26842
    -0.25990    -0.25737    -0.25626    -0.24972    -0.24921    -0.24843
    -0.24695    -0.24609    -0.24153    -0.24050    -0.24006    -0.23818
    -0.23743    -0.23672    -0.23339    -0.23298    -0.23190    -0.23016
    -0.22233    -0.20864    -0.08715    -0.05130    -0.04974    -0.03267
    -0.02945    -0.01772    -0.01604    -0.01177    -0.01048    -0.00957
 
  Peak memory usage:    839 Mb
  
  end of program scf
   
 Time(scf)  user:     2069.0  user+sys:     2090.0  wallclock:     2797.3
  
  start of program sole
  
    SCRF                   solvation energy
  iteration          Hartrees            kcal/mol
     0               0.0000000            0.0000
     1              -0.0156488           -9.8198
     2              -0.0166624          -10.4558
     3              -0.0169464          -10.6340
  
  solvation energy not yet converged... 
  
  Peak memory usage:    634 Mb
  
  end of program sole
   
 Time(sole)  user:        0.0  user+sys:        0.0  wallclock:        0.2
  
  start of program ch
  
  gridpoints used for charge fit        15937
    out of a possible maximum of        15937
  
   Electrostatic potential fitting constrained to reproduce
     total charge:                yes
     dipole moment:               no 
     traceless quadrupole moment: no 
     traceless octapole moment:   no 
  
  Atomic charges from electrostatic potential: 
   
 Atom       C1           C2           C3           C4           C5      
 Charge   -0.10706      0.03792     -0.17553      0.16116     -0.09422
   
 Atom       C6           C7           C8           C9           C10     
 Charge   -0.20457     -0.35008     -0.10652      0.06547      0.00688
   
 Atom       C11          O12          Si13         C14          C15     
 Charge    0.17165     -0.26258     -0.20610      0.12697      0.08018
   
 Atom       C16          C17          C18          C19          C20     
 Charge    0.14129     -0.17395     -0.35851     -0.19481      0.02818
   
 Atom       Si21         O22          C23          C24          P25     
 Charge   -0.01300     -0.17803     -0.15036     -0.11257      0.77529
   
 Atom       O26          O27          C28          C29          C30     
 Charge   -0.58332     -0.52721      0.36586      0.13686      0.16214
   
 Atom       C31          C32          C33          C34          C35     
 Charge    0.04699      0.00257      0.06583     -0.31850     -0.24417
   
 Atom       C36          C37          C38          C39          C40     
 Charge   -0.15124     -0.19275     -0.15128     -0.16709     -0.06843
   
 Atom       C41          C42          C43          C44          C45     
 Charge   -0.00601     -0.10242     -0.05689     -0.22086     -0.02026
   
 Atom       C46          C47          C48          C49          C50     
 Charge   -0.08507     -0.14546     -0.09437     -0.12314     -0.14873
   
 Atom       C51          C52          C53          C54          C55     
 Charge   -0.09789     -0.15142     -0.13290     -0.10336     -0.21811
   
 Atom       C56          C57          C58          C59          C60     
 Charge   -0.06984     -0.19838     -0.15366     -0.10230     -0.17324
   
 Atom       C61          C62          C63          C64          C65     
 Charge   -0.12469     -0.11285     -0.15047     -0.15297     -0.16147
   
 Atom       C66          C67          C68          C69          C70     
 Charge    0.07951      0.14238     -0.17570     -0.11729     -0.00494
   
 Atom       N71          S72          O73          O74          C75     
 Charge   -0.43480      0.71598     -0.46490     -0.42613      0.64408
   
 Atom       C76          C77          C78          C79          N80     
 Charge   -0.51214      0.35357     -0.49378      0.42729     -0.68351
   
 Atom       N81          C82          C83          C84          C85     
 Charge   -0.18276     -0.11692     -0.09490     -0.24194      0.05688
   
 Atom       H86          H87          H88          H89          H90     
 Charge    0.10431      0.14066      0.13419      0.16772      0.12731
   
 Atom       H91          H92          H93          H94          H95     
 Charge    0.11946      0.19196      0.13506      0.13871      0.12390
   
 Atom       H96          H97          H98          H99          H100    
 Charge    0.32010      0.15269      0.13345      0.09234      0.12697
   
 Atom       H101         H102         H103         H104         H105    
 Charge    0.11457      0.11888      0.09580      0.08278      0.11678
   
 Atom       H106         H107         H108         H109         H110    
 Charge    0.05890      0.15395      0.00853      0.10404      0.11751
   
 Atom       H111         H112         H113         H114         H115    
 Charge    0.11898      0.12445      0.12753      0.11809      0.13318
   
 Atom       H116         H117         H118         H119         H120    
 Charge    0.12830      0.09296      0.12890      0.12071      0.12410
   
 Atom       H121         H122         H123         H124         H125    
 Charge    0.12517      0.12088      0.13461      0.12600      0.12208
   
 Atom       H126         H127         H128         H129         H130    
 Charge    0.10387      0.14348      0.12958      0.00094      0.13191
   
 Atom       H131         H132         H133         H134         H135    
 Charge    0.13305      0.16989      0.20070      0.02176      0.18948
   
 Atom       H136         H137         H138         H139         H140    
 Charge    0.05786      0.39235      0.19399      0.14399      0.17800
   
 Atom       H141    
 Charge    0.13613
  
  sum of atomic charges:     0.000000
   
 RMS Error   9.28E-04 hartrees
 
  Peak memory usage:    582 Mb
  
  end of program ch
   
 Time(ch)  user:       17.0  user+sys:       17.0  wallclock:       18.7
  
  start of program post
  
  Writing input files for PBF
  Peak memory usage:    534 Mb
  
  end of program post
   
 Time(post)  user:        0.0  user+sys:        0.0  wallclock:        0.3

  start of program pbf

Pbf Version 4.00

Molecular surface area:      802.40591   [A2]
Reaction field energy:       -17.41142   [kT]
  Peak memory usage: 555 Mb

  end of program pbf

 Time(pbf)  user:        7.2  user+sys:        7.3  wallclock:        7.7
  
  start of program solv
  
   number of surface charges from PBF   12760
   sum of surface charges     -0.00022
   
  nuclear repulsion energy.......   17561.422699078 hartrees
  Peak memory usage:    694 Mb
  
  end of program solv
   
 Time(solv)  user:       33.0  user+sys:       33.0  wallclock:       34.2
  
  start of program scf
  
  
       i  u  d  i  g                   
       t  p  i  c  r                                 RMS    maximum
       e  d  i  u  i                       energy  density   DIIS  
       r  t  s  t  d       total energy    change  change    error 
  
etot    1  N  N  1  U   -4711.55899622989           9.2E-07  1.7E-05
etot    2  N  N  1  U   -4711.55899604057 -1.9E-07  0.0E+00  0.0E+00
  
  
 Energy components, in hartrees:
   (A)  Total zero-electron terms....   17563.83759702482
   (B)    Nuclear-nuclear............   17561.42269907798
   (C)    Nuclear-solvent............       2.41489794684
   (E)  Total one-electron terms.....  -41468.85212014441
   (F)    Electron-nuclear...........  -46140.84696952871
   (G)    Electron-solvent...........      -2.45113145621
   (H)    Kinetic....................    4674.44598084051
   (I)  Total two-electron terms.....   19193.45552707902
   (J)    Coulomb....................   19768.58250382435
   (K)    Exchange+Correlation.......    -575.12697674533
   (L)  Electronic energy............  -22275.39659306539  (E+I)
   (N)  Total quantum mech. energy...   -4711.55899604057  (A+L)
   (O)  Gas phase energy.............   -4711.52396574724
   (P)  Solution phase energy........   -4711.54087928588  (Q+R+S)
   (Q)    Total solute energy........   -4711.52276253120  (N-C-G)
   (R)    Total solvent energy.......      -0.01811675469  (C/2+G/2)
   (S)    Solute cavity energy.......       0.00000000000
   (U)  Reorganization energy........       0.00120321604  (Q-O)
   (V)  Solvation energy.............      -0.01691353865  (P-O)
  
 SCFE:  Solution phase energy: DFT(b3lyp)      -4711.54087928588 hartrees
        SCF iterations:   2
  
 
 HOMO energy:    -0.20860
 LUMO energy:    -0.08716
 
  Orbital energies (hartrees): 
   -89.11623   -77.21767   -66.11366   -66.10855   -19.18153   -19.17974
   -19.15600   -19.14868   -19.09932   -19.09341   -14.38275   -14.37307
   -14.35791   -10.28365   -10.26283   -10.25419   -10.25303   -10.24662
   -10.24039   -10.23370   -10.21995   -10.21587   -10.21534   -10.21325
   -10.20961   -10.20807   -10.20470   -10.20361   -10.20295   -10.20099
   -10.20036   -10.20013   -10.20012   -10.19984   -10.19863   -10.19698
   -10.19686   -10.19535   -10.19443   -10.19403   -10.19324   -10.19213
   -10.19170   -10.18939   -10.18928   -10.18921   -10.18847   -10.18832
   -10.18754   -10.18670   -10.18641   -10.18631   -10.18589   -10.18525
   -10.18519   -10.18491   -10.18487   -10.18479   -10.18403   -10.18363
   -10.18270   -10.18143   -10.18128   -10.18126   -10.18089   -10.18069
   -10.17982   -10.17979   -10.17937   -10.17857   -10.17850   -10.17804
   -10.17793   -10.17774   -10.17716   -10.17712   -10.17646   -10.17631
   -10.17607   -10.17238   -10.16895   -10.16810   -10.16633   -10.16435
   -10.16306    -8.14290    -6.66188    -6.10789    -6.10691    -6.10563
    -5.26001    -5.25537    -4.82682    -4.82544    -4.82333    -3.61900
    -3.61862    -3.61841    -3.61448    -3.61402    -3.61354    -1.11873
    -1.08874    -1.04696    -1.00823    -0.99294    -0.97221    -0.96967
    -0.94814    -0.92564    -0.87626    -0.86459    -0.86254    -0.84145
    -0.83880    -0.83733    -0.83286    -0.83199    -0.82999    -0.82010
    -0.81931    -0.81017    -0.79790    -0.79255    -0.79109    -0.77594
    -0.75692    -0.75433    -0.74798    -0.74430    -0.74181    -0.74108
    -0.73811    -0.73797    -0.73547    -0.73430    -0.73326    -0.73302
    -0.73076    -0.73031    -0.72914    -0.72798    -0.72714    -0.72404
    -0.70899    -0.70787    -0.66384    -0.64858    -0.64684    -0.62572
    -0.62241    -0.61668    -0.61225    -0.60817    -0.60625    -0.60055
    -0.59944    -0.59408    -0.59322    -0.59181    -0.59148    -0.58918
    -0.58664    -0.58638    -0.58450    -0.58313    -0.58103    -0.57876
    -0.57722    -0.57673    -0.57505    -0.56659    -0.56436    -0.55768
    -0.54160    -0.53395    -0.53114    -0.52468    -0.52095    -0.51940
    -0.50601    -0.50510    -0.50471    -0.50360    -0.50106    -0.49939
    -0.49849    -0.49460    -0.48786    -0.48641    -0.47390    -0.47297
    -0.47027    -0.46671    -0.46495    -0.46024    -0.45841    -0.45515
    -0.45257    -0.45029    -0.44732    -0.44688    -0.44507    -0.44417
    -0.44383    -0.44166    -0.44083    -0.43726    -0.43662    -0.43482
    -0.43272    -0.43245    -0.42972    -0.42937    -0.42902    -0.42869
    -0.42723    -0.42620    -0.42542    -0.42489    -0.42303    -0.42147
    -0.41921    -0.41691    -0.41657    -0.41456    -0.41202    -0.41005
    -0.40976    -0.40927    -0.40849    -0.40666    -0.40479    -0.40152
    -0.39524    -0.39148    -0.38823    -0.38497    -0.38377    -0.38190
    -0.38023    -0.37791    -0.37476    -0.37238    -0.36806    -0.36570
    -0.36099    -0.35928    -0.35822    -0.35484    -0.35398    -0.35200
    -0.35144    -0.34907    -0.34874    -0.34566    -0.34477    -0.34015
    -0.33899    -0.33809    -0.33607    -0.33260    -0.33257    -0.32935
    -0.32904    -0.32881    -0.32628    -0.32588    -0.32042    -0.31955
    -0.31908    -0.31562    -0.30939    -0.30711    -0.30370    -0.30336
    -0.29493    -0.29356    -0.28879    -0.28784    -0.28703    -0.28452
    -0.28272    -0.28218    -0.27783    -0.27732    -0.27355    -0.26839
    -0.25984    -0.25736    -0.25626    -0.24968    -0.24920    -0.24842
    -0.24693    -0.24608    -0.24150    -0.24049    -0.24004    -0.23815
    -0.23737    -0.23670    -0.23339    -0.23296    -0.23186    -0.23013
    -0.22230    -0.20860    -0.08716    -0.05129    -0.04970    -0.03263
    -0.02944    -0.01769    -0.01604    -0.01178    -0.01046    -0.00959
 
  Peak memory usage:    839 Mb
  
  end of program scf
   
 Time(scf)  user:      710.0  user+sys:      717.0  wallclock:      768.3
  
  start of program sole
  
    SCRF                   solvation energy
  iteration          Hartrees            kcal/mol
     0               0.0000000            0.0000
     1              -0.0156488           -9.8198
     2              -0.0166624          -10.4558
     3              -0.0169464          -10.6340
     4              -0.0169135          -10.6134
  
  stopping: solvation energy converged
  
  iterations:   4    sfinal:    -10.6134 kcal/mol
  
  Peak memory usage:    634 Mb
  
  end of program sole
   
 Time(sole)  user:        0.0  user+sys:        0.0  wallclock:        0.1
  
  start of program post
  
  Writing input files for PBF
  Peak memory usage:    534 Mb
  
  end of program post
   
 Time(post)  user:        0.0  user+sys:        0.0  wallclock:        0.2

 Total cpu seconds     user:   16754.000   user+sys:   16935.000
  
 Total elapsed time:    26535 seconds

Job B3LYP-SPE-Toru-SiPh3-Type-I-E-10-unrestrained completed on tethys at Mon Nov 28 18:44:29 2016
