Job Toru-NTf-Sulfonyl-5-chkp-unrestrained-uff-acc-sol-fine-grid_2 started on tethys at Wed Feb 15 05:32:22 2017
jobid: tethys-0-58a3e7e5

  +--------------------------------------------------------------------+
  |  Jaguar version 8.4, release  16                                   |
  |                                                                    |
  |  Copyright Schrodinger, Inc.                                       |
  |  All Rights Reserved.                                              |
  |                                                                    |
  |  The following have contributed to Jaguar (listed alphabetically): |
  |  Mike Beachy, Art Bochevarov, Dale Braden, Yixiang Cao,            |
  |  Chris Cortis, Rich Friesner, Bill Goddard, Hod Greeley,           |
  |  Tom Hughes, Jean-Marc Langlois, Daniel Mainz, Rob Murphy,         |
  |  Dean Philipp, Tom Pollard, Murco Ringnalda.                       |
  |                                                                    |
  |  Use of this program should be acknowledged in publications as:    |
  |                                                                    |
  |  Jaguar, version 8.4, Schrodinger, Inc., New York, NY, 2013.       |
  |                                                                    |
  |  A. D. Bochevarov, E. Harder, T. F. Hughes, J. R. Greenwood,       |
  |  D. A. Braden, D. M. Philipp, D. Rinaldo, M. D. Halls,             |
  |  J. Zhang, R. A. Friesner, "Jaguar: A High-Performance Quantum     |
  |  Chemistry Software Program with Strengths in Life and Materials   |
  |  Sciences", Int. J. Quantum Chem., 2013, 113(18), 2110-2142.       |
  +--------------------------------------------------------------------+
  
  start of program pre
  
  Job name: Toru-NTf-Sulfonyl-5-chkp-unrestrained-uff-acc-sol-fine-grid_2
  Executables used: /usr/local/shared/schrodinger/current/jaguar-v84016/bin/Linux-x86_64
  Temporary files : /home/ab2144/.schrodinger/tmp/Toru-NTf-Sulfonyl-5-chkp-unrestrained-uff-acc-sol-fine-grid_2
  Maestro file (input):  Toru-NTf-Sulfonyl-5-chkp-unrestrained-uff-acc-sol-fine-grid_2.mae
  Maestro file (output): Toru-NTf-Sulfonyl-5-chkp-unrestrained-uff-acc-sol-fine-grid_2.01.mae
  
  
  basis set:             6-31g**         
  net molecular charge:    0
  multiplicity:            1
  
  keygrid settings 
    wispc.....   7.500E-01
    ldens.....   0
    denspc....   7.500E-01
  
   grid     daf set  nls  grid set  Q type
  ------    -------  ---  --------  ------
  coarse       1      1       1        1
  medium       2      2       2        1
  fine         3      2       3        0
  ultrafine    4      2       4        1
  charge       0      1      -1        1
  gradient     5      2       4        1
  density      0      1       0        0
  DFT-fine     0      1     -13        0
  DFT-med.     0      1     -13        0
  DFT-grad     0      1     -13        0
  DFT-der2     0      1       0        0
  DFT-cphf     0      1       0        0
  LMP2-enrg    4      2       4        1
  LMP2-grad    5      2       2        1
  DFT-cphf2    0      1       0        0
  PBF-dens     0      1       0        0
  plotting     0      1       0        0
  
  idftgrdm  100
  ndftgrdm   50    0    0
  idftgrdf  111
  ndftgrdf   85    0    0
  idftgrdg  111
  ndftgrdg   80    3    0
  idftgrdu  433
  ndftgrdu  105    0    0
  idftgrdd  433
  ndftgrdd  105    0    0
  idftgrdc  433
  ndftgrdc   26    0    0
  idftgrdp  433
  ndftgrdp   18    0    0
  
  number of basis functions....         1680
  
 Input geometry:
                                   angstroms
  atom               x                 y                 z
  C1            0.7721000000     -5.8604000000     -1.0544000000 
  C2           -0.3463000000     -4.8840000000     -0.9461000000 
  C3            0.5815000000     -7.0430000000     -1.6507000000 
  C4           -1.5433000000     -5.1943000000     -1.4898000000 
  C5           -0.1615000000     -3.5567000000     -0.2884000000 
  C6           -1.7454000000     -6.5083000000     -2.1434000000 
  C7           -2.6584000000     -4.2314000000     -1.4174000000 
  C8           -0.7379000000     -7.3848000000     -2.2157000000 
  C9           -1.1296000000     -2.6212000000     -0.3881000000 
  C10           1.0654000000     -3.2578000000      0.4882000000 
  C11          -2.4809000000     -3.0186000000     -0.8705000000 
  O12          -0.9439000000     -1.3733000000      0.1548000000 
  Si13         -3.9409000000     -1.8724000000     -0.6628000000 
  C14           1.4180000000     -3.9721000000      1.5809000000 
  C15           1.9439000000     -2.1560000000      0.0125000000 
  C16           2.7417000000     -3.7398000000      2.2073000000 
  C17           0.5357000000     -4.9924000000      2.2023000000 
  C18           3.5883000000     -2.8467000000      1.6807000000 
  C19           3.1153000000     -4.5375000000      3.3923000000 
  C20           3.1970000000     -2.0375000000      0.5033000000 
  Si21          4.4696000000     -0.8559000000     -0.1966000000 
  O22           1.4851000000     -1.3158000000     -0.9704000000 
  C23           0.9407000000     -5.6763000000      3.2789000000 
  C24           2.2680000000     -5.4454000000      3.8889000000 
  P25           0.1777000000     -0.4155000000     -0.5723000000 
  O26          -0.3169000000      0.2084000000     -1.8407000000 
  N27           0.7024000000      0.5767000000      0.6101000000 
  C28          -5.5136000000     -2.7129000000     -1.1924000000 
  C29          -4.2139000000     -1.4185000000      1.1230000000 
  C30          -3.6500000000     -0.3835000000     -1.7325000000 
  C31           4.7121000000      0.5590000000      0.9834000000 
  C32           6.1088000000     -1.7425000000     -0.2969000000 
  C33           3.9798000000     -0.2210000000     -1.8815000000 
  C34          -5.9569000000     -3.7853000000     -0.5145000000 
  C35          -6.3085000000     -2.1913000000     -2.3315000000 
  C36          -3.4133000000     -1.8803000000      2.0994000000 
  C37          -5.4033000000     -0.6093000000      1.4839000000 
  C38          -3.2623000000     -0.5509000000     -3.0084000000 
  C39          -3.9292000000      0.9827000000     -1.2294000000 
  C40           3.8431000000      0.7884000000      1.9808000000 
  C41           5.9122000000      1.4192000000      0.8477000000 
  C42           6.5891000000     -2.2101000000     -1.4624000000 
  C43           6.9205000000     -1.9055000000      0.9358000000 
  C44           3.9375000000      1.0966000000     -2.1356000000 
  C45           3.6165000000     -1.1783000000     -2.9562000000 
  C46          -7.2124000000     -4.4530000000     -0.9153000000 
  C47          -7.9199000000     -3.9848000000     -1.9499000000 
  C48          -7.4473000000     -2.7974000000     -2.6901000000 
  C49          -3.6822000000     -1.5336000000      3.5101000000 
  C50          -4.7479000000     -0.7902000000      3.8266000000 
  C51          -5.6563000000     -0.3147000000      2.7647000000 
  C52          -3.1329000000      0.6148000000     -3.9064000000 
  C53          -3.4305000000      1.8396000000     -3.4594000000 
  C54          -3.8513000000      2.0308000000     -2.0571000000 
  C55           4.0742000000      1.9002000000      2.9263000000 
  C56           5.1639000000      2.6677000000      2.8060000000 
  C57           6.1315000000      2.4112000000      1.7196000000 
  C58           7.8925000000     -2.9056000000     -1.5077000000 
  C59           8.6092000000     -3.0629000000     -0.3894000000 
  C60           8.1014000000     -2.5336000000      0.8911000000 
  C61           3.5489000000      1.5881000000     -3.4730000000 
  C62           3.2327000000      0.7193000000     -4.4402000000 
  C63           3.2624000000     -0.7314000000     -4.1672000000 
  C64           3.3239000000      5.7591000000     -2.4004000000 
  C65           1.9500000000      5.7567000000     -2.1811000000 
  C66           1.3930000000      5.0345000000     -1.1103000000 
  C67           2.2405000000      4.2941000000     -0.2699000000 
  C68           3.6155000000      4.3222000000     -0.4835000000 
  C69           4.1628000000      5.0435000000     -1.5450000000 
  C70          -0.0561000000      5.1831000000     -0.8647000000 
  N71          -0.5920000000      4.8877000000      0.3609000000 
  S72          -2.0117000000      5.7353000000      0.8465000000 
  O73          -1.6259000000      6.8965000000      1.6399000000 
  O74          -2.7934000000      5.9188000000     -0.3878000000 
  C75          -2.8517000000      4.5244000000      1.8923000000 
  C76          -4.0386000000      3.9564000000      1.4429000000 
  C77          -4.6715000000      3.0742000000      2.3183000000 
  C78          -4.0867000000      2.8176000000      3.5553000000 
  C79          -2.8854000000      3.4517000000      3.8829000000 
  N80          -2.2721000000      4.3091000000      3.0630000000 
  N81          -0.4444000000      2.7968000000     -2.4658000000 
  C82           0.1378000000      2.7573000000     -3.6620000000 
  C83          -0.1090000000      3.9673000000     -4.3513000000 
  C84          -0.8969000000      4.7376000000     -3.5171000000 
  C85          -1.0565000000      4.0422000000     -2.2748000000 
  H86           1.7527000000     -5.6232000000     -0.6633000000 
  H87           1.3974000000     -7.7500000000     -1.7271000000 
  H88          -2.7096000000     -6.7640000000     -2.5650000000 
  H89          -3.6226000000     -4.5322000000     -1.8027000000 
  H90          -0.8859000000     -8.3445000000     -2.6939000000 
  H91          -0.4546000000     -5.1847000000      1.8101000000 
  H92           4.5552000000     -2.6966000000      2.1386000000 
  H93           4.0791000000     -4.3942000000      3.8661000000 
  H94           0.2813000000     -6.4117000000      3.7218000000 
  H95           2.5546000000     -6.0233000000      4.7581000000 
  H96          -5.4008000000     -4.1760000000      0.3290000000 
  H97          -5.9823000000     -1.3176000000     -2.8784000000 
  H98          -2.5755000000     -2.5258000000      1.8838000000 
  H99          -6.0799000000     -0.2622000000      0.7129000000 
  H100         -3.0687000000     -1.5403000000     -3.4043000000 
  H101         -4.2164000000      1.1461000000     -0.2014000000 
  H102          2.9701000000      0.1652000000      2.1127000000 
  H103          6.6201000000      1.2432000000      0.0474000000 
  H104          6.0423000000     -2.0938000000     -2.3844000000 
  H105          6.5714000000     -1.5031000000      1.8780000000 
  H106          4.1947000000      1.8160000000     -1.3760000000 
  H107          3.6226000000     -2.2435000000     -2.7605000000 
  H108         -7.5580000000     -5.3212000000     -0.3692000000 
  H109         -8.8403000000     -4.4722000000     -2.2445000000 
  H110         -8.0270000000     -2.4163000000     -3.5209000000 
  H111         -3.0175000000     -1.8886000000      4.2870000000 
  H112         -4.9481000000     -0.5385000000      4.8599000000 
  H113         -6.5261000000      0.2743000000      3.0253000000 
  H114         -2.8147000000      0.4728000000     -4.9310000000 
  H115         -3.3478000000      2.6942000000     -4.1183000000 
  H116         -4.0881000000      3.0231000000     -1.6987000000 
  H117          3.3630000000      2.0885000000      3.7198000000 
  H118          5.3360000000      3.4802000000      3.4999000000 
  H119          7.0094000000      3.0363000000      1.6219000000 
  H120          8.2651000000     -3.2881000000     -2.4492000000 
  H121          9.5638000000     -3.5720000000     -0.4218000000 
  H122          8.6909000000     -2.6473000000      1.7917000000 
  H123          3.5176000000      2.6527000000     -3.6665000000 
  H124          2.9444000000      1.0778000000     -5.4198000000 
  H125          2.9923000000     -1.4314000000     -4.9472000000 
  H126          3.7376000000      6.3282000000     -3.2271000000 
  H127          1.3015000000      6.3322000000     -2.8339000000 
  H128          1.8446000000      3.7152000000      0.5576000000 
  H129          4.2621000000      3.7727000000      0.1883000000 
  H130          5.2372000000      5.0499000000     -1.7020000000 
  H131         -0.4850000000      6.0855000000     -1.2859000000 
  H132         -4.4419000000      4.2029000000      0.4694000000 
  H133         -5.6037000000      2.5985000000      2.0322000000 
  H134         -4.5482000000      2.1391000000      4.2640000000 
  H135         -2.3973000000      3.2652000000      4.8349000000 
  H136         -0.4940000000      1.9281000000     -1.8967000000 
  H137          0.6684000000      1.8698000000     -3.9730000000 
  H138          0.2536000000      4.2137000000     -5.3388000000 
  H139         -1.2950000000      5.7237000000     -3.7175000000 
  H140         -1.9503000000      4.0998000000     -1.6721000000 
  S141         -0.2388000000      1.4087000000      1.5537000000 
  O142         -1.6617000000      1.4831000000      1.1718000000 
  C143         -0.2074000000      0.4727000000      3.1790000000 
  O144          0.4005000000      2.7056000000      1.9147000000 
  F145         -1.1755000000      0.9324000000      3.9886000000 
  F146         -0.4132000000     -0.8320000000      2.9709000000 
  F147          0.9682000000      0.6280000000      3.7929000000 
  H148         -0.2274000000      4.1482000000      0.9897000000 
   
  principal moments of inertia:
        amu*angstrom^2:    21638.40029    24056.64110    32795.29386
                g*cm^2: 3.59314045E-36 3.99469874E-36 5.44578599E-36
   
  rotational constants:
               cm^(-1):      0.00077906      0.00070075      0.00051403
                   GHz:      0.02335565      0.02100788      0.01541011
   
  Molecular weight:    1308.28 amu
   
  Stoichiometry: Si2C73PN4H56S2O7F3
  Molecular Point Group: C1      
  Point Group used: C1
  
  nuclear repulsion energy.......   20746.935267174 hartrees
 
 Non-default options chosen:
   SCF calculation type: DFT(m06-2x)                 
   DFT=M06-2X
   Solvation energy will be computed using PBF
     -solute cavity energy will not be included
     -surface area terms will not be included
   Highest accuracy cutoffs used in SCF
   Solvent: other                                                           
   Internal dielectric constant:    1.000
   Continuum dielectric constant:   2.380
   Solvent probe molecule radius:   2.760
  
 Temporary integer options set:
     73=  2
  
   Fixing number of canonical orbitals to remain constant.
   Number of canonical orbitals to use:  1673
  
  atom       vdw   vdw2    cov     mass  grid  daf  charge   basis
  C1        1.949  1.900  0.770   12.000    Y    Y      Y    6-31g**
  C2        1.949  1.900  0.770   12.000    Y    Y      Y    6-31g**
  C3        1.949  1.900  0.770   12.000    Y    Y      Y    6-31g**
  C4        1.949  1.900  0.770   12.000    Y    Y      Y    6-31g**
  C5        1.949  1.900  0.770   12.000    Y    Y      Y    6-31g**
  C6        1.949  1.900  0.770   12.000    Y    Y      Y    6-31g**
  C7        1.949  1.900  0.770   12.000    Y    Y      Y    6-31g**
  C8        1.949  1.900  0.770   12.000    Y    Y      Y    6-31g**
  C9        1.949  1.900  0.770   12.000    Y    Y      Y    6-31g**
  C10       1.949  1.900  0.770   12.000    Y    Y      Y    6-31g**
  C11       1.949  1.900  0.770   12.000    Y    Y      Y    6-31g**
  O12       1.702  1.600  0.730   15.995    Y    Y      Y    6-31g**
  Si13      2.217  2.147  1.110   27.977    Y    Y      Y    6-31g**
  C14       1.949  1.900  0.770   12.000    Y    Y      Y    6-31g**
  C15       1.949  1.900  0.770   12.000    Y    Y      Y    6-31g**
  C16       1.949  1.900  0.770   12.000    Y    Y      Y    6-31g**
  C17       1.949  1.900  0.770   12.000    Y    Y      Y    6-31g**
  C18       1.949  1.900  0.770   12.000    Y    Y      Y    6-31g**
  C19       1.949  1.900  0.770   12.000    Y    Y      Y    6-31g**
  C20       1.949  1.900  0.770   12.000    Y    Y      Y    6-31g**
  Si21      2.217  2.147  1.110   27.977    Y    Y      Y    6-31g**
  O22       1.702  1.600  0.730   15.995    Y    Y      Y    6-31g**
  C23       1.949  1.900  0.770   12.000    Y    Y      Y    6-31g**
  C24       1.949  1.900  0.770   12.000    Y    Y      Y    6-31g**
  P25       2.147  2.074  1.060   30.974    Y    Y      Y    6-31g**
  O26       1.702  1.600  0.730   15.995    Y    Y      Y    6-31g**
  N27       1.831  1.600  0.750   14.003    Y    Y      Y    6-31g**
  C28       1.949  1.900  0.770   12.000    Y    Y      Y    6-31g**
  C29       1.949  1.900  0.770   12.000    Y    Y      Y    6-31g**
  C30       1.949  1.900  0.770   12.000    Y    Y      Y    6-31g**
  C31       1.949  1.900  0.770   12.000    Y    Y      Y    6-31g**
  C32       1.949  1.900  0.770   12.000    Y    Y      Y    6-31g**
  C33       1.949  1.900  0.770   12.000    Y    Y      Y    6-31g**
  C34       1.949  1.900  0.770   12.000    Y    Y      Y    6-31g**
  C35       1.949  1.900  0.770   12.000    Y    Y      Y    6-31g**
  C36       1.949  1.900  0.770   12.000    Y    Y      Y    6-31g**
  C37       1.949  1.900  0.770   12.000    Y    Y      Y    6-31g**
  C38       1.949  1.900  0.770   12.000    Y    Y      Y    6-31g**
  C39       1.949  1.900  0.770   12.000    Y    Y      Y    6-31g**
  C40       1.949  1.900  0.770   12.000    Y    Y      Y    6-31g**
  C41       1.949  1.900  0.770   12.000    Y    Y      Y    6-31g**
  C42       1.949  1.900  0.770   12.000    Y    Y      Y    6-31g**
  C43       1.949  1.900  0.770   12.000    Y    Y      Y    6-31g**
  C44       1.949  1.900  0.770   12.000    Y    Y      Y    6-31g**
  C45       1.949  1.900  0.770   12.000    Y    Y      Y    6-31g**
  C46       1.949  1.900  0.770   12.000    Y    Y      Y    6-31g**
  C47       1.949  1.900  0.770   12.000    Y    Y      Y    6-31g**
  C48       1.949  1.900  0.770   12.000    Y    Y      Y    6-31g**
  C49       1.949  1.900  0.770   12.000    Y    Y      Y    6-31g**
  C50       1.949  1.900  0.770   12.000    Y    Y      Y    6-31g**
  C51       1.949  1.900  0.770   12.000    Y    Y      Y    6-31g**
  C52       1.949  1.900  0.770   12.000    Y    Y      Y    6-31g**
  C53       1.949  1.900  0.770   12.000    Y    Y      Y    6-31g**
  C54       1.949  1.900  0.770   12.000    Y    Y      Y    6-31g**
  C55       1.949  1.900  0.770   12.000    Y    Y      Y    6-31g**
  C56       1.949  1.900  0.770   12.000    Y    Y      Y    6-31g**
  C57       1.949  1.900  0.770   12.000    Y    Y      Y    6-31g**
  C58       1.949  1.900  0.770   12.000    Y    Y      Y    6-31g**
  C59       1.949  1.900  0.770   12.000    Y    Y      Y    6-31g**
  C60       1.949  1.900  0.770   12.000    Y    Y      Y    6-31g**
  C61       1.949  1.900  0.770   12.000    Y    Y      Y    6-31g**
  C62       1.949  1.900  0.770   12.000    Y    Y      Y    6-31g**
  C63       1.949  1.900  0.770   12.000    Y    Y      Y    6-31g**
  C64       1.949  1.900  0.770   12.000    Y    Y      Y    6-31g**
  C65       1.949  1.900  0.770   12.000    Y    Y      Y    6-31g**
  C66       1.949  1.900  0.770   12.000    Y    Y      Y    6-31g**
  C67       1.949  1.900  0.770   12.000    Y    Y      Y    6-31g**
  C68       1.949  1.900  0.770   12.000    Y    Y      Y    6-31g**
  C69       1.949  1.900  0.770   12.000    Y    Y      Y    6-31g**
  C70       1.949  1.900  0.770   12.000    Y    Y      Y    6-31g**
  N71       1.831  1.600  0.750   14.003    Y    Y      Y    6-31g**
  S72       2.070  1.900  1.020   31.972    Y    Y      Y    6-31g**
  O73       1.702  1.600  0.730   15.995    Y    Y      Y    6-31g**
  O74       1.702  1.600  0.730   15.995    Y    Y      Y    6-31g**
  C75       1.949  1.900  0.770   12.000    Y    Y      Y    6-31g**
  C76       1.949  1.900  0.770   12.000    Y    Y      Y    6-31g**
  C77       1.949  1.900  0.770   12.000    Y    Y      Y    6-31g**
  C78       1.949  1.900  0.770   12.000    Y    Y      Y    6-31g**
  C79       1.949  1.900  0.770   12.000    Y    Y      Y    6-31g**
  N80       1.831  1.600  0.750   14.003    Y    Y      Y    6-31g**
  N81       1.831  1.600  0.750   14.003    Y    Y      Y    6-31g**
  C82       1.949  1.900  0.770   12.000    Y    Y      Y    6-31g**
  C83       1.949  1.900  0.770   12.000    Y    Y      Y    6-31g**
  C84       1.949  1.900  0.770   12.000    Y    Y      Y    6-31g**
  C85       1.949  1.900  0.770   12.000    Y    Y      Y    6-31g**
  H86       1.597  1.150  0.320    1.008    Y    Y      Y    6-31g**
  H87       1.597  1.150  0.320    1.008    Y    Y      Y    6-31g**
  H88       1.597  1.150  0.320    1.008    Y    Y      Y    6-31g**
  H89       1.597  1.150  0.320    1.008    Y    Y      Y    6-31g**
  H90       1.597  1.150  0.320    1.008    Y    Y      Y    6-31g**
  H91       1.597  1.150  0.320    1.008    Y    Y      Y    6-31g**
  H92       1.597  1.150  0.320    1.008    Y    Y      Y    6-31g**
  H93       1.597  1.150  0.320    1.008    Y    Y      Y    6-31g**
  H94       1.597  1.150  0.320    1.008    Y    Y      Y    6-31g**
  H95       1.597  1.150  0.320    1.008    Y    Y      Y    6-31g**
  H96       1.597  1.150  0.320    1.008    Y    Y      Y    6-31g**
  H97       1.597  1.150  0.320    1.008    Y    Y      Y    6-31g**
  H98       1.597  1.150  0.320    1.008    Y    Y      Y    6-31g**
  H99       1.597  1.150  0.320    1.008    Y    Y      Y    6-31g**
  H100      1.597  1.150  0.320    1.008    Y    Y      Y    6-31g**
  H101      1.597  1.150  0.320    1.008    Y    Y      Y    6-31g**
  H102      1.597  1.150  0.320    1.008    Y    Y      Y    6-31g**
  H103      1.597  1.150  0.320    1.008    Y    Y      Y    6-31g**
  H104      1.597  1.150  0.320    1.008    Y    Y      Y    6-31g**
  H105      1.597  1.150  0.320    1.008    Y    Y      Y    6-31g**
  H106      1.597  1.150  0.320    1.008    Y    Y      Y    6-31g**
  H107      1.597  1.150  0.320    1.008    Y    Y      Y    6-31g**
  H108      1.597  1.150  0.320    1.008    Y    Y      Y    6-31g**
  H109      1.597  1.150  0.320    1.008    Y    Y      Y    6-31g**
  H110      1.597  1.150  0.320    1.008    Y    Y      Y    6-31g**
  H111      1.597  1.150  0.320    1.008    Y    Y      Y    6-31g**
  H112      1.597  1.150  0.320    1.008    Y    Y      Y    6-31g**
  H113      1.597  1.150  0.320    1.008    Y    Y      Y    6-31g**
  H114      1.597  1.150  0.320    1.008    Y    Y      Y    6-31g**
  H115      1.597  1.150  0.320    1.008    Y    Y      Y    6-31g**
  H116      1.597  1.150  0.320    1.008    Y    Y      Y    6-31g**
  H117      1.597  1.150  0.320    1.008    Y    Y      Y    6-31g**
  H118      1.597  1.150  0.320    1.008    Y    Y      Y    6-31g**
  H119      1.597  1.150  0.320    1.008    Y    Y      Y    6-31g**
  H120      1.597  1.150  0.320    1.008    Y    Y      Y    6-31g**
  H121      1.597  1.150  0.320    1.008    Y    Y      Y    6-31g**
  H122      1.597  1.150  0.320    1.008    Y    Y      Y    6-31g**
  H123      1.597  1.150  0.320    1.008    Y    Y      Y    6-31g**
  H124      1.597  1.150  0.320    1.008    Y    Y      Y    6-31g**
  H125      1.597  1.150  0.320    1.008    Y    Y      Y    6-31g**
  H126      1.597  1.150  0.320    1.008    Y    Y      Y    6-31g**
  H127      1.597  1.150  0.320    1.008    Y    Y      Y    6-31g**
  H128      1.597  1.150  0.320    1.008    Y    Y      Y    6-31g**
  H129      1.597  1.150  0.320    1.008    Y    Y      Y    6-31g**
  H130      1.597  1.150  0.320    1.008    Y    Y      Y    6-31g**
  H131      1.597  1.150  0.320    1.008    Y    Y      Y    6-31g**
  H132      1.597  1.150  0.320    1.008    Y    Y      Y    6-31g**
  H133      1.597  1.150  0.320    1.008    Y    Y      Y    6-31g**
  H134      1.597  1.150  0.320    1.008    Y    Y      Y    6-31g**
  H135      1.597  1.150  0.320    1.008    Y    Y      Y    6-31g**
  H136      1.597  1.150  0.320    1.008    Y    Y      Y    6-31g**
  H137      1.597  1.150  0.320    1.008    Y    Y      Y    6-31g**
  H138      1.597  1.150  0.320    1.008    Y    Y      Y    6-31g**
  H139      1.597  1.150  0.320    1.008    Y    Y      Y    6-31g**
  H140      1.597  1.150  0.320    1.008    Y    Y      Y    6-31g**
  S141      2.070  1.900  1.020   31.972    Y    Y      Y    6-31g**
  O142      1.702  1.600  0.730   15.995    Y    Y      Y    6-31g**
  C143      1.949  1.900  0.770   12.000    Y    Y      Y    6-31g**
  O144      1.702  1.600  0.730   15.995    Y    Y      Y    6-31g**
  F145      1.736  1.682  0.720   18.998    Y    Y      Y    6-31g**
  F146      1.736  1.682  0.720   18.998    Y    Y      Y    6-31g**
  F147      1.736  1.682  0.720   18.998    Y    Y      Y    6-31g**
  H148      1.597  1.150  0.320    1.008    Y    Y      Y    6-31g**
  
  Peak memory usage:    528 Mb
  
  end of program pre
   
 Time(pre)  user:        0.0  user+sys:        0.0  wallclock:        0.3
  
  start of program onee
  
  smallest eigenvalue of S:    2.255E-04
  Set cut 20/10 to   5.044548650807910E-004
  number of canonical orbitals.....         1673
  Peak memory usage:    707 Mb
  
  end of program onee
   
 Time(onee)  user:       26.0  user+sys:       27.0  wallclock:       27.3
  
  start of program hfig
  
  initial wavefunction generated automatically from atomic wavefunctions
 
  Irreducible     Total no   No of occupied orbitals 
  representation  orbitals   Shell_1  Shell_2    ...
  No Symm         1673        340
  ------------------------
  Orbital occupation/shell    1.000
 
  Peak memory usage:    646 Mb
  
  end of program hfig
   
 Time(hfig)  user:       34.0  user+sys:       34.0  wallclock:       35.1
  
  start of program probe
  
  Peak memory usage:    640 Mb
  
  end of program probe
   
 Time(probe)  user:       28.0  user+sys:       28.0  wallclock:       28.9
  
  start of program grid
  
  
   grid     grid set  grid #  grid sym
  ------    --------  ------  --------
  coarse        0        0        1
  medium        2        1        1
  fine          0        0        1
  ultrafine     4        2        1
  charge       -1        3        1
  gradient      4        2        1
  density       0        0        1
  DFT-fine    -13        4        1
  DFT-med.    -13        4        1
  DFT-grad    -13        4        1
  DFT-der2      0        0        1
  DFT-cphf      0        0        1
  LMP2-enrg     4        2        1
  LMP2-grad     2        1        1
  DFT-cphf2     0        0        1
  PBF-dens      0        0        1
  plotting      0        0        1
  
   
  number of gridpoints: 
     atom        C1       C2       C3       C4       C5       C6       C7
  grid # 1       97      102       94      102      100       96       92
  grid # 2      337      360      336      366      357      336      337
  grid # 3       32       28       42       48       16       46       23
  grid # 4    48124    48124    48124    48124    48124    48124    48124
   
  number of gridpoints: 
     atom        C8       C9      C10      C11      O12     Si13      C14
  grid # 1       94       96      100      100      112      476      101
  grid # 2      336      353      354      359      433      476      357
  grid # 3       47       16       10       11       29       10       19
  grid # 4    48124    48124    48124    48124    47716    38542    48124
   
  number of gridpoints: 
     atom       C15      C16      C17      C18      C19      C20     Si21
  grid # 1       98      101       96       95       98      101      473
  grid # 2      357      366      338      336      339      363      473
  grid # 3       16       38       26       30       44       18        9
  grid # 4    48124    48124    48124    48124    48124    48124    38542
   
  number of gridpoints: 
     atom       O22      C23      C24      P25      O26      N27      C28
  grid # 1      112       95       94      447      117      108      100
  grid # 2      437      338      338      447      461      411      357
  grid # 3       53       37       47        6       82       30        9
  grid # 4    47716    48124    48124    38640    47716    47928    48124
   
  number of gridpoints: 
     atom       C29      C30      C31      C32      C33      C34      C35
  grid # 1       99      101      100      100      100       92       96
  grid # 2      358      358      357      360      357      335      339
  grid # 3       12        8        7       15       11       18       30
  grid # 4    48124    48124    48124    48124    48124    48124    48124
   
  number of gridpoints: 
     atom       C36      C37      C38      C39      C40      C41      C42
  grid # 1       93       95       92       96       92       94       93
  grid # 2      334      335      331      336      335      331      338
  grid # 3       19       21        7       18       21       11       37
  grid # 4    48124    48124    48124    48124    48124    48124    48124
   
  number of gridpoints: 
     atom       C43      C44      C45      C46      C47      C48      C49
  grid # 1       95       93       93       93       94       94       93
  grid # 2      334      335      329      335      335      336      334
  grid # 3       23       26       13       39       46       42       31
  grid # 4    48124    48124    48124    48124    48124    48124    48124
   
  number of gridpoints: 
     atom       C50      C51      C52      C53      C54      C55      C56
  grid # 1       93       93       93       94       93       93       93
  grid # 2      333      333      334      332      333      334      331
  grid # 3       32       27       19       23       22       27       26
  grid # 4    48124    48124    48124    48124    48124    48124    48124
   
  number of gridpoints: 
     atom       C57      C58      C59      C60      C61      C62      C63
  grid # 1       93       94       94       94       93       93       93
  grid # 2      331      335      336      336      333      334      335
  grid # 3       21       47       48       39       30       29       28
  grid # 4    48124    48124    48124    48124    48124    48124    48124
   
  number of gridpoints: 
     atom       C64      C65      C66      C67      C68      C69      C70
  grid # 1       96       96      100       96       96       96       91
  grid # 2      331      335      361      331      330      330      323
  grid # 3       32       35       31       37       31       31        7
  grid # 4    48124    48124    48124    48124    48124    48124    48124
   
  number of gridpoints: 
     atom       N71      S72      O73      O74      C75      C76      C77
  grid # 1      100      439      123      119       98       96       96
  grid # 2      350      439      516      485      358      328      329
  grid # 3       16       12      359      187       26       29       32
  grid # 4    47928    48492    47716    47716    48124    48124    48124
   
  number of gridpoints: 
     atom       C78      C79      N80      N81      C82      C83      C84
  grid # 1       96       96      113       96       94       93       93
  grid # 2      331      334      419      343      329      328      326
  grid # 3       33       29       94       11       15       11        7
  grid # 4    48124    48124    47928    47928    48124    48124    48124
   
  number of gridpoints: 
     atom       C85      H86      H87      H88      H89      H90      H91
  grid # 1       93      111      118      118      110      118      112
  grid # 2      324      436      453      446      428      453      433
  grid # 3        6      254      420      363      176      424      228
  grid # 4    48124    48426    48426    48426    48426    48426    48426
   
  number of gridpoints: 
     atom       H92      H93      H94      H95      H96      H97      H98
  grid # 1      112      118      118      118      112      111      108
  grid # 2      420      443      448      450      439      432      421
  grid # 3      154      360      407      417      266      238      142
  grid # 4    48426    48426    48426    48426    48426    48426    48426
   
  number of gridpoints: 
     atom       H99     H100     H101     H102     H103     H104     H105
  grid # 1      111      112      107      107      113      110      111
  grid # 2      428      438      414      416      438      431      425
  grid # 3      228      258       98      111      263      220      203
  grid # 4    48426    48426    48426    48426    48426    48426    48426
   
  number of gridpoints: 
     atom      H106     H107     H108     H109     H110     H111     H112
  grid # 1      107      111      118      118      118      115      115
  grid # 2      416      426      452      453      453      442      446
  grid # 3      108      212      414      423      425      326      340
  grid # 4    48426    48426    48426    48426    48426    48426    48426
   
  number of gridpoints: 
     atom      H113     H114     H115     H116     H117     H118     H119
  grid # 1      113      117      114      110      114      117      117
  grid # 2      443      449      441      427      439      452      451
  grid # 3      306      378      303      192      293      409      387
  grid # 4    48426    48426    48426    48426    48426    48426    48426
   
  number of gridpoints: 
     atom      H120     H121     H122     H123     H124     H125     H126
  grid # 1      118      118      118      111      116      118      117
  grid # 2      452      453      452      437      448      452      450
  grid # 3      418      424      418      240      346      407      396
  grid # 4    48426    48426    48426    48426    48426    48426    48426
   
  number of gridpoints: 
     atom      H127     H128     H129     H130     H131     H132     H133
  grid # 1      111      107      109      117      109      110      110
  grid # 2      432      417      419      447      413      430      435
  grid # 3      233      143      131      364      148      206      243
  grid # 4    48426    48426    48426    48426    48426    48426    48426
   
  number of gridpoints: 
     atom      H134     H135     H136     H137     H138     H139     H140
  grid # 1      111      116      102      110      117      114      105
  grid # 2      435      444      405      430      458      447      405
  grid # 3      231      359       99      175      412      330       83
  grid # 4    48426    48426    48426    48426    48426    48426    48426
   
  number of gridpoints: 
     atom      S141     O142     C143     O144     F145     F146     F147
  grid # 1      433      119       90      116      524      518      521
  grid # 2      433      472      320      455      524      518      521
  grid # 3        9       78        7       70      132      105      159
  grid # 4    48492    47716    48124    47716    47062    47062    47062
   
  number of gridpoints: 
     atom      H148    total
  grid # 1       99    18360
  grid # 2      404    57840
  grid # 3       85    18963
  grid # 4    48426  7104526
   
  Peak memory usage:    671 Mb
  
  end of program grid
   
 Time(grid)  user:     1016.0  user+sys:     1019.0  wallclock:     1045.0
  
  start of program rwr
  
  Peak memory usage:    661 Mb
  
  end of program rwr
   
 Time(rwr)  user:       68.0  user+sys:       74.0  wallclock:       75.5
  
  start of program scf
  
 number of electrons..........        680
 number of alpha electrons....        340
 number of beta electrons.....        340
 number of orbitals, total....       1673
 number of doubly-occ'd orbs..        340
 number of open shell orbs....          0
 number of occupied orbitals..        340
 number of virtual orbitals...       1333
 number of hamiltonians.......          1
 number of shells.............          1
 SCF type: DFT=M06-2X
  
       i  u  d  i  g                   
       t  p  i  c  r                                 RMS    maximum
       e  d  i  u  i                       energy  density   DIIS  
       r  t  s  t  d       total energy    change  change    error 
  
etot    1  N  N  1  U   -5562.71011702306           4.0E-03  1.0E-01
etot    2  N  Y  1  U   -5529.77021408410 -3.3E+01  1.8E-02  1.2E-01
etot    3  N  Y  1  U   -5205.78266266086 -3.2E+02  1.7E-02  4.4E-01
etot    4  N  Y  1  U   -5556.86259991918  3.5E+02  3.7E-03  1.2E-01
etot    5  N  Y  1  U   -5571.53119953458  1.5E+01  3.0E-03  4.3E-02
etot    6  N  Y  1  U   -5561.98509633599 -9.5E+00  2.6E-03  8.8E-02
etot    7  N  Y  1  U   -5575.37402461128  1.3E+01  4.0E-04  1.5E-02
etot    8  N  Y  1  U   -5575.49814479682  1.2E-01  1.7E-04  9.1E-03
etot    9  N  Y  1  U   -5575.54652564633  4.8E-02  5.4E-05  2.3E-03
etot   10  N  Y  1  U   -5575.55198108686  5.5E-03  2.5E-05  1.3E-03
etot   11  N  Y  1  U   -5575.55285448980  8.7E-04  1.4E-05  8.3E-04
etot   12  N  Y  1  U   -5575.55324956633  4.0E-04  1.0E-05  3.3E-04
etot   13  N  Y  1  U   -5575.55341768867  1.7E-04  4.5E-06  1.5E-04
etot   14  N  N  1  U   -5575.55345330830  3.6E-05  0.0E+00  0.0E+00
  
  
 Energy components, in hartrees:
   (A)  Nuclear repulsion............   20746.93526717432
   (E)  Total one-electron terms.....  -49020.69664587828
   (F)    Electron-nuclear...........  -54556.72023848887
   (H)    Kinetic....................    5536.02359261063
   (I)  Total two-electron terms.....   22698.20792539566
   (J)    Coulomb....................   23349.45388584951
   (K)    Exchange+Correlation.......    -651.24596045385
   (L)  Electronic energy............  -26322.48872048262  (E+I)
   (M)  -V/T.........................       2.00714047909  (-(A+F+I)/H)
   (N)  Total energy.................   -5575.55345330830  (A+L)
  
 SCFE: SCF energy: DFT(m06-2x)     -5575.55345330830 hartrees   iterations:  14
  
 
 HOMO energy:    -0.25380
 LUMO energy:    -0.06752
 
  Orbital energies (hartrees): 
   -90.17254   -90.15310   -78.20629   -67.00745   -67.00699   -25.29266
   -25.29005   -25.28942   -19.68715   -19.68694   -19.65465   -19.64964
   -19.63004   -19.62428   -19.59856   -14.82226   -14.81861   -14.78617
   -14.73914   -10.80674   -10.66475   -10.63108   -10.62325   -10.62318
   -10.61486   -10.60365   -10.60022   -10.58789   -10.58694   -10.58194
   -10.58033   -10.57860   -10.57244   -10.57198   -10.57075   -10.56911
   -10.56898   -10.56843   -10.56616   -10.56525   -10.56303   -10.56157
   -10.56127   -10.55970   -10.55799   -10.55653   -10.55467   -10.55455
   -10.55449   -10.55381   -10.55351   -10.55345   -10.55279   -10.55220
   -10.55156   -10.55122   -10.55110   -10.55069   -10.55001   -10.54893
   -10.54893   -10.54857   -10.54828   -10.54808   -10.54789   -10.54783
   -10.54682   -10.54659   -10.54621   -10.54616   -10.54615   -10.54600
   -10.54567   -10.54567   -10.54548   -10.54516   -10.54496   -10.54456
   -10.54383   -10.54343   -10.54304   -10.54283   -10.54194   -10.54098
   -10.54045   -10.54037   -10.53216   -10.53152   -10.53130   -10.52987
   -10.52620   -10.52540    -8.48336    -8.46170    -6.98568    -6.40566
    -6.40443    -6.40369    -6.38357    -6.38322    -6.38303    -5.53845
    -5.53840    -5.10420    -5.10307    -5.10146    -3.84823    -3.84810
    -3.84796    -3.84789    -3.84780    -3.84767    -1.45725    -1.36711
    -1.36444    -1.24555    -1.22619    -1.21501    -1.18323    -1.13166
    -1.11103    -1.10085    -1.08114    -1.08083    -1.06589    -0.99067
    -0.98192    -0.97189    -0.96818    -0.94516    -0.94310    -0.94160
    -0.93888    -0.93736    -0.93680    -0.92309    -0.92291    -0.91161
    -0.90164    -0.89690    -0.89087    -0.87772    -0.85444    -0.85243
    -0.84407    -0.84311    -0.84216    -0.83665    -0.83563    -0.83544
    -0.83456    -0.83147    -0.83122    -0.82978    -0.82882    -0.82649
    -0.82573    -0.82523    -0.82461    -0.82335    -0.82170    -0.80470
    -0.80140    -0.76196    -0.75651    -0.73719    -0.72916    -0.71611
    -0.70908    -0.70439    -0.69845    -0.69346    -0.69185    -0.69068
    -0.68686    -0.68349    -0.68198    -0.68117    -0.67927    -0.67638
    -0.67543    -0.67457    -0.67378    -0.67077    -0.66906    -0.66855
    -0.66677    -0.66199    -0.66132    -0.65841    -0.65683    -0.65049
    -0.64994    -0.64648    -0.63525    -0.62572    -0.61390    -0.60823
    -0.60471    -0.60238    -0.60037    -0.58430    -0.58199    -0.58133
    -0.57888    -0.57807    -0.57642    -0.57625    -0.57427    -0.57343
    -0.56290    -0.56155    -0.56022    -0.55815    -0.55219    -0.54632
    -0.54605    -0.54336    -0.54045    -0.53801    -0.53618    -0.53194
    -0.53105    -0.52769    -0.52576    -0.52304    -0.52151    -0.51964
    -0.51900    -0.51661    -0.51590    -0.51469    -0.51383    -0.51249
    -0.51123    -0.51001    -0.50643    -0.50240    -0.50144    -0.50034
    -0.49985    -0.49890    -0.49705    -0.49701    -0.49580    -0.49525
    -0.49366    -0.49312    -0.49179    -0.49126    -0.48940    -0.48880
    -0.48469    -0.48297    -0.48202    -0.48156    -0.48001    -0.47847
    -0.47617    -0.47586    -0.47463    -0.47214    -0.46837    -0.46501
    -0.45935    -0.45461    -0.45300    -0.45111    -0.44938    -0.44849
    -0.44640    -0.44351    -0.43558    -0.43201    -0.43168    -0.42834
    -0.42710    -0.42561    -0.42357    -0.42266    -0.42053    -0.42004
    -0.41907    -0.41721    -0.41571    -0.41013    -0.40911    -0.40273
    -0.40228    -0.40020    -0.39601    -0.39531    -0.39369    -0.39208
    -0.39143    -0.39112    -0.38758    -0.38716    -0.38648    -0.38641
    -0.38470    -0.38185    -0.37869    -0.37660    -0.37340    -0.36448
    -0.36005    -0.35780    -0.35413    -0.35261    -0.34618    -0.34232
    -0.34139    -0.34081    -0.33939    -0.33675    -0.33614    -0.33592
    -0.32851    -0.32709    -0.32155    -0.31842    -0.31165    -0.30595
    -0.30215    -0.30119    -0.30041    -0.29894    -0.29652    -0.29524
    -0.29463    -0.29271    -0.29168    -0.28934    -0.28914    -0.28786
    -0.28480    -0.28183    -0.27416    -0.25380    -0.06752    -0.01984
    -0.01805    -0.00034     0.00022     0.00966     0.01597     0.01871
     0.02051     0.02298
 
  Peak memory usage:    862 Mb
  
  end of program scf
   
 Time(scf)  user:    35903.0  user+sys:    36071.0  wallclock:    39621.0
  
  start of program ch
  
  gridpoints used for charge fit        16394
    out of a possible maximum of        18963
  
   Electrostatic potential fitting constrained to reproduce
     total charge:                yes
     dipole moment:               no 
     traceless quadrupole moment: no 
     traceless octapole moment:   no 
  
  Atomic charges from electrostatic potential: 
   
 Atom       C1           C2           C3           C4           C5      
 Charge   -0.10454     -0.03775     -0.17511      0.19574      0.08015
   
 Atom       C6           C7           C8           C9           C10     
 Charge   -0.23069     -0.31641     -0.09878     -0.01946     -0.03235
   
 Atom       C11          O12          Si13         C14          C15     
 Charge    0.10042     -0.29038     -0.20565      0.04855      0.02513
   
 Atom       C16          C17          C18          C19          C20     
 Charge    0.29761     -0.13701     -0.51420     -0.27224      0.19734
   
 Atom       Si21         O22          C23          C24          P25     
 Charge   -0.23180     -0.25152     -0.17678     -0.09039      1.00691
   
 Atom       O26          N27          C28          C29          C30     
 Charge   -0.62642     -0.68484      0.20401      0.18101      0.44355
   
 Atom       C31          C32          C33          C34          C35     
 Charge    0.06864      0.19962      0.23161     -0.16468     -0.24092
   
 Atom       C36          C37          C38          C39          C40     
 Charge   -0.18202     -0.27023     -0.22079     -0.42569     -0.00620
   
 Atom       C41          C42          C43          C44          C45     
 Charge   -0.16242     -0.18620     -0.20020     -0.22253     -0.19695
   
 Atom       C46          C47          C48          C49          C50     
 Charge   -0.14478     -0.15705     -0.09073     -0.09202     -0.19161
   
 Atom       C51          C52          C53          C54          C55     
 Charge   -0.03682     -0.10898     -0.17238     -0.05792     -0.15444
   
 Atom       C56          C57          C58          C59          C60     
 Charge   -0.15103     -0.12713     -0.11455     -0.16119     -0.10552
   
 Atom       C61          C62          C63          C64          C65     
 Charge   -0.10106     -0.11560     -0.15171     -0.07251     -0.22011
   
 Atom       C66          C67          C68          C69          C70     
 Charge    0.15823     -0.30663      0.12273     -0.20584      0.14361
   
 Atom       N71          S72          O73          O74          C75     
 Charge   -0.49170      0.67938     -0.39160     -0.45396      0.53886
   
 Atom       C76          C77          C78          C79          N80     
 Charge   -0.43826      0.20030     -0.42346      0.43400     -0.61603
   
 Atom       N81          C82          C83          C84          C85     
 Charge   -0.18242      0.02684     -0.24166     -0.16900      0.04423
   
 Atom       H86          H87          H88          H89          H90     
 Charge    0.10962      0.14613      0.14554      0.15837      0.13048
   
 Atom       H91          H92          H93          H94          H95     
 Charge    0.11551      0.22338      0.15642      0.14595      0.12841
   
 Atom       H96          H97          H98          H99          H100    
 Charge    0.12258      0.11424      0.14653      0.13760      0.12386
   
 Atom       H101         H102         H103         H104         H105    
 Charge    0.21858      0.08060      0.12046      0.10945      0.12421
   
 Atom       H106         H107         H108         H109         H110    
 Charge    0.13602      0.15380      0.13520      0.13627      0.12817
   
 Atom       H111         H112         H113         H114         H115    
 Charge    0.12200      0.13496      0.10309      0.12592      0.12170
   
 Atom       H116         H117         H118         H119         H120    
 Charge    0.11220      0.13664      0.13639      0.12949      0.12967
   
 Atom       H121         H122         H123         H124         H125    
 Charge    0.13505      0.12679      0.09525      0.11460      0.13579
   
 Atom       H126         H127         H128         H129         H130    
 Charge    0.13008      0.12223      0.20246      0.03311      0.14524
   
 Atom       H131         H132         H133         H134         H135    
 Charge    0.14233      0.19714      0.09046      0.17230      0.05869
   
 Atom       H136         H137         H138         H139         H140    
 Charge    0.37891      0.16502      0.17625      0.16721      0.08987
   
 Atom       S141         O142         C143         O144         F145    
 Charge    0.81348     -0.49380      0.50882     -0.53616     -0.16202
   
 Atom       F146         F147         H148    
 Charge   -0.15363     -0.15800      0.39749
  
  sum of atomic charges:     0.000000
   
 RMS Error   1.02E-03 hartrees
 
  Peak memory usage:    589 Mb
  
  end of program ch
   
 Time(ch)  user:       17.0  user+sys:       17.0  wallclock:       37.1
  
  start of program post
  
  Writing input files for PBF
  Peak memory usage:    536 Mb
  
  end of program post
   
 Time(post)  user:        0.0  user+sys:        0.0  wallclock:        0.4

  start of program pbf

Pbf Version 4.00

Molecular surface area:      820.93554   [A2]
Reaction field energy:       -17.53327   [kT]
  Peak memory usage: 560 Mb

  end of program pbf

 Time(pbf)  user:        8.4  user+sys:        8.5  wallclock:       15.1
  
  start of program solv
  
   number of surface charges from PBF   13352
   sum of surface charges     -0.00034
   
  nuclear repulsion energy.......   20746.935267174 hartrees
  Peak memory usage:    701 Mb
  
  end of program solv
   
 Time(solv)  user:       35.0  user+sys:       35.0  wallclock:       71.4
  
  start of program scf
  
  
       i  u  d  i  g                   
       t  p  i  c  r                                 RMS    maximum
       e  d  i  u  i                       energy  density   DIIS  
       r  t  s  t  d       total energy    change  change    error 
  
etot    1  N  N  1  U   -5575.59002653499           5.7E-05  1.4E-03
etot    2  N  Y  1  U   -5575.59078674646  7.6E-04  1.9E-05  9.4E-04
etot    3  N  Y  1  U   -5575.59115314416  3.7E-04  6.0E-06  4.6E-04
etot    4  N  Y  1  U   -5575.59121370425  6.1E-05  2.3E-06  1.2E-04
etot    5  N  N  1  U   -5575.59121984739  6.1E-06  0.0E+00  0.0E+00
  
  
 Energy components, in hartrees:
   (A)  Total zero-electron terms....   20748.96425798786
   (B)    Nuclear-nuclear............   20746.93526717432
   (C)    Nuclear-solvent............       2.02899081354
   (E)  Total one-electron terms.....  -49023.97967537607
   (F)    Electron-nuclear...........  -54557.97997923977
   (G)    Electron-solvent...........      -2.06795467738
   (H)    Kinetic....................    5536.06825854107
   (I)  Total two-electron terms.....   22699.42419754083
   (J)    Coulomb....................   23350.69029761786
   (K)    Exchange+Correlation.......    -651.26610007704
   (L)  Electronic energy............  -26324.55547783525  (E+I)
   (N)  Total quantum mech. energy...   -5575.59121984739  (A+L)
   (O)  Gas phase energy.............   -5575.55345330830
   (P)  Solution phase energy........   -5575.57173791547  (Q+R+S)
   (Q)    Total solute energy........   -5575.55225598355  (N-C-G)
   (R)    Total solvent energy.......      -0.01948193192  (C/2+G/2)
   (S)    Solute cavity energy.......       0.00000000000
   (U)  Reorganization energy........       0.00119732475  (Q-O)
   (V)  Solvation energy.............      -0.01828460717  (P-O)
  
 SCFE:  Solution phase energy: DFT(m06-2x)      -5575.57173791547 hartrees
        SCF iterations:   5
  
 
 HOMO energy:    -0.25466
 LUMO energy:    -0.06719
 
  Orbital energies (hartrees): 
   -90.18149   -90.15592   -78.20762   -67.00920   -67.00839   -25.29586
   -25.29273   -25.29185   -19.68847   -19.68833   -19.66226   -19.65914
   -19.63474   -19.62772   -19.59922   -14.82311   -14.82131   -14.79041
   -14.74134   -10.80875   -10.66526   -10.63544   -10.62439   -10.62425
   -10.61347   -10.60488   -10.60034   -10.58894   -10.58799   -10.58200
   -10.57890   -10.57768   -10.57171   -10.57092   -10.57041   -10.56921
   -10.56850   -10.56568   -10.56370   -10.56311   -10.56241   -10.56233
   -10.56113   -10.56040   -10.55933   -10.55565   -10.55410   -10.55409
   -10.55401   -10.55363   -10.55349   -10.55295   -10.55260   -10.55187
   -10.55176   -10.55107   -10.55104   -10.55043   -10.54996   -10.54995
   -10.54983   -10.54970   -10.54948   -10.54895   -10.54894   -10.54815
   -10.54808   -10.54781   -10.54722   -10.54720   -10.54673   -10.54642
   -10.54623   -10.54618   -10.54567   -10.54557   -10.54536   -10.54496
   -10.54429   -10.54403   -10.54389   -10.54381   -10.54322   -10.54242
   -10.54193   -10.54190   -10.53395   -10.53371   -10.53255   -10.53097
   -10.52809   -10.52676    -8.49213    -8.46453    -6.98700    -6.41438
    -6.41330    -6.41247    -6.38640    -6.38606    -6.38586    -5.54014
    -5.53984    -5.10553    -5.10440    -5.10278    -3.84984    -3.84962
    -3.84962    -3.84953    -3.84935    -3.84905    -1.45995    -1.37007
    -1.36693    -1.25440    -1.22792    -1.21784    -1.18446    -1.14117
    -1.11013    -1.10449    -1.08434    -1.08214    -1.06945    -0.99264
    -0.98272    -0.97114    -0.96869    -0.94646    -0.94477    -0.94253
    -0.94002    -0.93849    -0.93785    -0.92442    -0.92320    -0.91211
    -0.90243    -0.89669    -0.89155    -0.87773    -0.85469    -0.85120
    -0.84507    -0.84413    -0.84090    -0.83785    -0.83691    -0.83613
    -0.83605    -0.83261    -0.83162    -0.83071    -0.82960    -0.82768
    -0.82721    -0.82594    -0.82575    -0.82401    -0.82281    -0.80709
    -0.80194    -0.76395    -0.75783    -0.73866    -0.73077    -0.71826
    -0.71006    -0.70473    -0.69905    -0.69358    -0.69202    -0.69022
    -0.68617    -0.68570    -0.68433    -0.68186    -0.68013    -0.67729
    -0.67647    -0.67527    -0.67423    -0.66995    -0.66954    -0.66790
    -0.66741    -0.66271    -0.66200    -0.65905    -0.65797    -0.65232
    -0.65063    -0.64635    -0.63673    -0.62630    -0.61420    -0.60949
    -0.60827    -0.60335    -0.60043    -0.58630    -0.58276    -0.58176
    -0.58078    -0.57928    -0.57813    -0.57760    -0.57488    -0.57324
    -0.56564    -0.56331    -0.56088    -0.56036    -0.55303    -0.55087
    -0.54677    -0.54615    -0.54093    -0.53872    -0.53727    -0.53371
    -0.53155    -0.52856    -0.52682    -0.52509    -0.52217    -0.52015
    -0.51915    -0.51713    -0.51629    -0.51484    -0.51392    -0.51317
    -0.51120    -0.51049    -0.50682    -0.50437    -0.50244    -0.50144
    -0.50120    -0.49948    -0.49757    -0.49704    -0.49635    -0.49554
    -0.49453    -0.49391    -0.49301    -0.49091    -0.48976    -0.48905
    -0.48478    -0.48358    -0.48244    -0.48203    -0.47999    -0.47841
    -0.47727    -0.47569    -0.47376    -0.46971    -0.46892    -0.46562
    -0.46065    -0.45542    -0.45374    -0.45164    -0.44985    -0.44880
    -0.44663    -0.44433    -0.43625    -0.43496    -0.43329    -0.43260
    -0.42851    -0.42729    -0.42530    -0.42384    -0.42180    -0.42133
    -0.42055    -0.41801    -0.41736    -0.41234    -0.41012    -0.40778
    -0.40297    -0.40076    -0.40007    -0.39700    -0.39534    -0.39407
    -0.39229    -0.39207    -0.39179    -0.38827    -0.38749    -0.38722
    -0.38618    -0.38283    -0.38065    -0.37931    -0.37455    -0.36563
    -0.36265    -0.36036    -0.35529    -0.35362    -0.34743    -0.34708
    -0.34251    -0.34200    -0.34023    -0.33842    -0.33742    -0.33466
    -0.33015    -0.32860    -0.32326    -0.31926    -0.31083    -0.30751
    -0.30433    -0.30338    -0.30244    -0.29995    -0.29741    -0.29674
    -0.29575    -0.29395    -0.29304    -0.29093    -0.29062    -0.28897
    -0.28548    -0.28218    -0.27484    -0.25466    -0.06719    -0.02104
    -0.02078    -0.00124    -0.00101     0.00852     0.01475     0.01821
     0.02023     0.02338
 
  Peak memory usage:    859 Mb
  
  end of program scf
   
 Time(scf)  user:    11029.0  user+sys:    11082.0  wallclock:    22935.9
  
  start of program sole
  
    SCRF                   solvation energy
  iteration          Hartrees            kcal/mol
     0               0.0000000            0.0000
     1              -0.0182846          -11.4738
  
  solvation energy not yet converged... 
  
  Peak memory usage:    635 Mb
  
  end of program sole
   
 Time(sole)  user:        0.0  user+sys:        0.0  wallclock:        0.3
  
  start of program ch
  
  gridpoints used for charge fit        16394
    out of a possible maximum of        16394
  
   Electrostatic potential fitting constrained to reproduce
     total charge:                yes
     dipole moment:               no 
     traceless quadrupole moment: no 
     traceless octapole moment:   no 
  
  Atomic charges from electrostatic potential: 
   
 Atom       C1           C2           C3           C4           C5      
 Charge   -0.10641     -0.04253     -0.18383      0.19917      0.08820
   
 Atom       C6           C7           C8           C9           C10     
 Charge   -0.23939     -0.33287     -0.10538     -0.04057     -0.02747
   
 Atom       C11          O12          Si13         C14          C15     
 Charge    0.12881     -0.28558     -0.24018      0.04055      0.00358
   
 Atom       C16          C17          C18          C19          C20     
 Charge    0.30924     -0.13603     -0.53727     -0.28417      0.22559
   
 Atom       Si21         O22          C23          C24          P25     
 Charge   -0.25974     -0.24041     -0.18567     -0.09508      1.00513
   
 Atom       O26          N27          C28          C29          C30     
 Charge   -0.62445     -0.67965      0.21052      0.19770      0.46013
   
 Atom       C31          C32          C33          C34          C35     
 Charge    0.07805      0.20305      0.24083     -0.17185     -0.24356
   
 Atom       C36          C37          C38          C39          C40     
 Charge   -0.19230     -0.27891     -0.22022     -0.43140     -0.00866
   
 Atom       C41          C42          C43          C44          C45     
 Charge   -0.16676     -0.18792     -0.20040     -0.22794     -0.20498
   
 Atom       C46          C47          C48          C49          C50     
 Charge   -0.14930     -0.16663     -0.09907     -0.09526     -0.20083
   
 Atom       C51          C52          C53          C54          C55     
 Charge   -0.04373     -0.12056     -0.17325     -0.07342     -0.16109
   
 Atom       C56          C57          C58          C59          C60     
 Charge   -0.15952     -0.13490     -0.12458     -0.16865     -0.11447
   
 Atom       C61          C62          C63          C64          C65     
 Charge   -0.11413     -0.12537     -0.15207     -0.07615     -0.22455
   
 Atom       C66          C67          C68          C69          C70     
 Charge    0.16514     -0.31253      0.11277     -0.21364      0.12811
   
 Atom       N71          S72          O73          O74          C75     
 Charge   -0.49024      0.70210     -0.42211     -0.47048      0.55092
   
 Atom       C76          C77          C78          C79          N80     
 Charge   -0.44890      0.20885     -0.42595      0.44704     -0.64948
   
 Atom       N81          C82          C83          C84          C85     
 Charge   -0.16598      0.02225     -0.24365     -0.17097      0.04837
   
 Atom       H86          H87          H88          H89          H90     
 Charge    0.11118      0.15488      0.15277      0.16536      0.13917
   
 Atom       H91          H92          H93          H94          H95     
 Charge    0.11715      0.22995      0.16438      0.15423      0.13636
   
 Atom       H96          H97          H98          H99          H100    
 Charge    0.12712      0.11325      0.14837      0.14106      0.12610
   
 Atom       H101         H102         H103         H104         H105    
 Charge    0.22342      0.08077      0.12326      0.10938      0.12609
   
 Atom       H106         H107         H108         H109         H110    
 Charge    0.14081      0.15917      0.14290      0.14455      0.13643
   
 Atom       H111         H112         H113         H114         H115    
 Charge    0.12563      0.14354      0.11161      0.13384      0.12431
   
 Atom       H116         H117         H118         H119         H120    
 Charge    0.11981      0.13959      0.14470      0.13819      0.13854
   
 Atom       H121         H122         H123         H124         H125    
 Charge    0.14329      0.13499      0.10371      0.12327      0.14249
   
 Atom       H126         H127         H128         H129         H130    
 Charge    0.13882      0.13008      0.20337      0.03937      0.15310
   
 Atom       H131         H132         H133         H134         H135    
 Charge    0.15291      0.20425      0.09743      0.17890      0.06350
   
 Atom       H136         H137         H138         H139         H140    
 Charge    0.36917      0.17154      0.18518      0.17673      0.08848
   
 Atom       S141         O142         C143         O144         F145    
 Charge    0.81593     -0.48918      0.50140     -0.54425     -0.15888
   
 Atom       F146         F147         H148    
 Charge   -0.14997     -0.15946      0.39290
  
  sum of atomic charges:     0.000000
   
 RMS Error   1.03E-03 hartrees
 
  Peak memory usage:    588 Mb
  
  end of program ch
   
 Time(ch)  user:       20.0  user+sys:       21.0  wallclock:       45.0
  
  start of program post
  
  Writing input files for PBF
  Peak memory usage:    536 Mb
  
  end of program post
   
 Time(post)  user:        0.0  user+sys:        0.0  wallclock:        0.4

  start of program pbf

Pbf Version 4.00

Molecular surface area:      820.93554   [A2]
Reaction field energy:       -20.28404   [kT]
  Peak memory usage: 560 Mb

  end of program pbf

 Time(pbf)  user:       14.6  user+sys:       14.7  wallclock:       29.6
  
  start of program solv
  
   number of surface charges from PBF   13352
   sum of surface charges     -0.00034
   
  nuclear repulsion energy.......   20746.935267174 hartrees
  Peak memory usage:    701 Mb
  
  end of program solv
   
 Time(solv)  user:       39.0  user+sys:       39.0  wallclock:       79.1
  
  start of program scf
  
  
       i  u  d  i  g                   
       t  p  i  c  r                                 RMS    maximum
       e  d  i  u  i                       energy  density   DIIS  
       r  t  s  t  d       total energy    change  change    error 
  
etot    1  N  N  1  U   -5575.59409746036           7.0E-06  1.6E-04
etot    2  N  N  1  U   -5575.59410009561  2.6E-06  0.0E+00  0.0E+00
  
  
 Energy components, in hartrees:
   (A)  Total zero-electron terms....   20749.17660560883
   (B)    Nuclear-nuclear............   20746.93526717432
   (C)    Nuclear-solvent............       2.24133843451
   (E)  Total one-electron terms.....  -49024.44496125516
   (F)    Electron-nuclear...........  -54558.23831963129
   (G)    Electron-solvent...........      -2.28356959471
   (H)    Kinetic....................    5536.07692797085
   (I)  Total two-electron terms.....   22699.67425555072
   (J)    Coulomb....................   23350.94225637785
   (K)    Exchange+Correlation.......    -651.26800082713
   (L)  Electronic energy............  -26324.77070570444  (E+I)
   (N)  Total quantum mech. energy...   -5575.59410009561  (A+L)
   (O)  Gas phase energy.............   -5575.55345330830
   (P)  Solution phase energy........   -5575.57298451551  (Q+R+S)
   (Q)    Total solute energy........   -5575.55186893540  (N-C-G)
   (R)    Total solvent energy.......      -0.02111558010  (C/2+G/2)
   (S)    Solute cavity energy.......       0.00000000000
   (U)  Reorganization energy........       0.00158437290  (Q-O)
   (V)  Solvation energy.............      -0.01953120721  (P-O)
  
 SCFE:  Solution phase energy: DFT(m06-2x)      -5575.57298451551 hartrees
        SCF iterations:   2
  
 
 HOMO energy:    -0.30081
 LUMO energy:    -0.06682
 
  Orbital energies (hartrees): 
   -58.75351   -58.39628   -48.63057   -38.14520   -37.56160   -33.19286
   -31.96984   -28.53739   -25.97967   -25.77384   -23.89036   -20.97666
   -20.00313   -19.05077   -18.69229   -18.30714   -18.19093   -17.98472
   -17.95584   -17.23459   -17.04499   -16.12666   -15.04045   -14.87664
   -14.72679   -14.58995   -14.28423   -14.19109   -13.53033   -13.52647
   -12.96644   -12.95549   -12.91120   -12.74211   -12.68089   -12.67332
   -12.38291   -12.15711   -11.82341   -11.60761   -11.48570   -11.34574
   -11.19794   -11.16949   -11.16315   -11.13177   -11.07044   -10.98864
   -10.98679   -10.92856   -10.91440   -10.88635   -10.88596   -10.86050
   -10.85616   -10.77418   -10.77196   -10.76972   -10.75151   -10.68945
   -10.67946   -10.66252   -10.65253   -10.60574   -10.60520   -10.57909
   -10.55040   -10.54135   -10.50918   -10.48010   -10.45664   -10.45018
   -10.41709   -10.40824   -10.39883   -10.39042   -10.38348   -10.37535
   -10.30487   -10.29927   -10.20296   -10.19373   -10.10797   -10.09294
   -10.08628   -10.01379    -9.88969    -9.83265    -9.73745    -9.52783
    -9.36053    -9.25056    -9.01441    -8.91223    -8.82318    -8.80992
    -8.70143    -8.65372    -8.50883    -7.83280    -7.64962    -7.14497
    -7.05336    -7.02107    -6.65383    -6.61708    -6.56326    -6.54432
    -6.50674    -5.96983    -5.37109    -4.81449    -1.45983    -1.38207
    -1.37078    -1.11046    -1.08686    -1.06318    -1.03968    -1.03186
    -1.00508    -0.93465    -0.90168    -0.89819    -0.89741    -0.88939
    -0.87960    -0.85702    -0.85249    -0.84820    -0.84437    -0.84401
    -0.84001    -0.83841    -0.83642    -0.82679    -0.82240    -0.81656
    -0.81367    -0.81283    -0.81171    -0.80714    -0.80638    -0.80586
    -0.80469    -0.80135    -0.79547    -0.79347    -0.79307    -0.79278
    -0.79244    -0.79125    -0.78521    -0.78192    -0.78174    -0.78170
    -0.77546    -0.77456    -0.77454    -0.77304    -0.76754    -0.76347
    -0.76067    -0.75917    -0.75634    -0.75620    -0.75257    -0.74949
    -0.74675    -0.73806    -0.73101    -0.71277    -0.71020    -0.69958
    -0.69820    -0.69523    -0.69337    -0.69206    -0.69142    -0.68721
    -0.68233    -0.68167    -0.68036    -0.67787    -0.66591    -0.66252
    -0.65968    -0.65931    -0.65563    -0.65180    -0.64947    -0.64667
    -0.64597    -0.64018    -0.63865    -0.63119    -0.63093    -0.63040
    -0.62720    -0.62606    -0.62357    -0.61937    -0.61338    -0.61320
    -0.60599    -0.60566    -0.60204    -0.60083    -0.59872    -0.59740
    -0.58640    -0.58604    -0.58566    -0.58026    -0.57662    -0.57095
    -0.57002    -0.56920    -0.56895    -0.56728    -0.56442    -0.56249
    -0.56207    -0.55963    -0.55601    -0.55023    -0.54303    -0.54211
    -0.54162    -0.53913    -0.53908    -0.53773    -0.53539    -0.53423
    -0.53324    -0.53170    -0.53072    -0.53010    -0.52598    -0.52487
    -0.52382    -0.52164    -0.51838    -0.51764    -0.51756    -0.51744
    -0.51237    -0.50611    -0.50263    -0.50133    -0.49999    -0.49840
    -0.49756    -0.49701    -0.49627    -0.49251    -0.49168    -0.48838
    -0.48833    -0.48826    -0.48750    -0.48651    -0.48603    -0.48590
    -0.48454    -0.48419    -0.48181    -0.48028    -0.47985    -0.47886
    -0.47886    -0.47789    -0.47763    -0.47726    -0.47411    -0.47388
    -0.47042    -0.46843    -0.46829    -0.46806    -0.46717    -0.46474
    -0.45926    -0.45915    -0.45748    -0.45637    -0.45623    -0.45167
    -0.45085    -0.45022    -0.44948    -0.44942    -0.44856    -0.44855
    -0.44603    -0.44464    -0.44300    -0.44273    -0.44089    -0.44072
    -0.43637    -0.43262    -0.43199    -0.42376    -0.42323    -0.42306
    -0.42194    -0.41430    -0.41227    -0.41086    -0.40204    -0.40062
    -0.39768    -0.39409    -0.39337    -0.39207    -0.39117    -0.38796
    -0.38662    -0.38292    -0.38202    -0.37715    -0.37531    -0.37364
    -0.37322    -0.37115    -0.36757    -0.36441    -0.35401    -0.35234
    -0.34994    -0.34879    -0.33830    -0.33437    -0.33205    -0.31979
    -0.31430    -0.31285    -0.30184    -0.30081    -0.06682    -0.02104
    -0.02071    -0.00133    -0.00106     0.00858     0.01468     0.01817
     0.02042     0.02364
 
  Peak memory usage:    859 Mb
  
  end of program scf
   
 Time(scf)  user:     2788.0  user+sys:     2804.0  wallclock:     5808.0
  
  start of program sole
  
    SCRF                   solvation energy
  iteration          Hartrees            kcal/mol
     0               0.0000000            0.0000
     1              -0.0182846          -11.4738
     2              -0.0195312          -12.2560
  
  solvation energy not yet converged... 
  
  Peak memory usage:    635 Mb
  
  end of program sole
   
 Time(sole)  user:        0.0  user+sys:        0.0  wallclock:        0.5
  
  start of program ch
  
  gridpoints used for charge fit        16394
    out of a possible maximum of        16394
  
   Electrostatic potential fitting constrained to reproduce
     total charge:                yes
     dipole moment:               no 
     traceless quadrupole moment: no 
     traceless octapole moment:   no 
  
  Atomic charges from electrostatic potential: 
   
 Atom       C1           C2           C3           C4           C5      
 Charge   -0.10701     -0.04301     -0.18389      0.19910      0.08829
   
 Atom       C6           C7           C8           C9           C10     
 Charge   -0.23978     -0.33390     -0.10539     -0.04167     -0.02709
   
 Atom       C11          O12          Si13         C14          C15     
 Charge    0.13076     -0.28508     -0.24281      0.03985      0.00147
   
 Atom       C16          C17          C18          C19          C20     
 Charge    0.31044     -0.13599     -0.53931     -0.28539      0.22754
   
 Atom       Si21         O22          C23          C24          P25     
 Charge   -0.26269     -0.23934     -0.18570     -0.09447      1.00405
   
 Atom       O26          N27          C28          C29          C30     
 Charge   -0.62334     -0.67954      0.21086      0.19970      0.46136
   
 Atom       C31          C32          C33          C34          C35     
 Charge    0.07832      0.20311      0.24088     -0.17232     -0.24347
   
 Atom       C36          C37          C38          C39          C40     
 Charge   -0.19395     -0.27945     -0.22043     -0.43112     -0.00880
   
 Atom       C41          C42          C43          C44          C45     
 Charge   -0.16710     -0.18794     -0.20067     -0.22861     -0.20633
   
 Atom       C46          C47          C48          C49          C50     
 Charge   -0.14954     -0.16703     -0.09966     -0.09589     -0.20128
   
 Atom       C51          C52          C53          C54          C55     
 Charge   -0.04392     -0.12153     -0.17296     -0.07506     -0.16182
   
 Atom       C56          C57          C58          C59          C60     
 Charge   -0.16002     -0.13438     -0.12519     -0.16855     -0.11478
   
 Atom       C61          C62          C63          C64          C65     
 Charge   -0.11580     -0.12516     -0.15091     -0.07501     -0.22354
   
 Atom       C66          C67          C68          C69          C70     
 Charge    0.16325     -0.31373      0.11140     -0.21399      0.12584
   
 Atom       N71          S72          O73          O74          C75     
 Charge   -0.49155      0.70085     -0.42576     -0.46840      0.54980
   
 Atom       C76          C77          C78          C79          N80     
 Charge   -0.44860      0.21158     -0.42432      0.44701     -0.65428
   
 Atom       N81          C82          C83          C84          C85     
 Charge   -0.16275      0.02256     -0.24200     -0.16938      0.04761
   
 Atom       H86          H87          H88          H89          H90     
 Charge    0.11113      0.15546      0.15321      0.16573      0.13985
   
 Atom       H91          H92          H93          H94          H95     
 Charge    0.11713      0.23028      0.16486      0.15477      0.13689
   
 Atom       H96          H97          H98          H99          H100    
 Charge    0.12716      0.11284      0.14832      0.14121      0.12612
   
 Atom       H101         H102         H103         H104         H105    
 Charge    0.22361      0.08050      0.12334      0.10914      0.12604
   
 Atom       H106         H107         H108         H109         H110    
 Charge    0.14168      0.15942      0.14348      0.14514      0.13698
   
 Atom       H111         H112         H113         H114         H115    
 Charge    0.12570      0.14434      0.11250      0.13463      0.12459
   
 Atom       H116         H117         H118         H119         H120    
 Charge    0.12041      0.13935      0.14529      0.13882      0.13921
   
 Atom       H121         H122         H123         H124         H125    
 Charge    0.14390      0.13559      0.10491      0.12404      0.14296
   
 Atom       H126         H127         H128         H129         H130    
 Charge    0.13965      0.13094      0.20286      0.03958      0.15360
   
 Atom       H131         H132         H133         H134         H135    
 Charge    0.15387      0.20480      0.09808      0.17969      0.06398
   
 Atom       H136         H137         H138         H139         H140    
 Charge    0.36662      0.17197      0.18588      0.17736      0.08875
   
 Atom       S141         O142         C143         O144         F145    
 Charge    0.81710     -0.48748      0.50008     -0.54617     -0.15829
   
 Atom       F146         F147         H148    
 Charge   -0.14927     -0.15967      0.39234
  
  sum of atomic charges:     0.000000
   
 RMS Error   1.03E-03 hartrees
 
  Peak memory usage:    588 Mb
  
  end of program ch
   
 Time(ch)  user:       19.0  user+sys:       20.0  wallclock:       48.3
  
  start of program post
  
  Writing input files for PBF
  Peak memory usage:    536 Mb
  
  end of program post
   
 Time(post)  user:        0.0  user+sys:        0.0  wallclock:        0.4

  start of program pbf

Pbf Version 4.00

Molecular surface area:      820.93554   [A2]
Reaction field energy:       -20.70118   [kT]
  Peak memory usage: 560 Mb

  end of program pbf

 Time(pbf)  user:       15.0  user+sys:       15.0  wallclock:       30.1
  
  start of program solv
  
   number of surface charges from PBF   13352
   sum of surface charges     -0.00034
   
  nuclear repulsion energy.......   20746.935267174 hartrees
  Peak memory usage:    701 Mb
  
  end of program solv
   
 Time(solv)  user:       39.0  user+sys:       39.0  wallclock:       79.0
  
  start of program scf
  
  
       i  u  d  i  g                   
       t  p  i  c  r                                 RMS    maximum
       e  d  i  u  i                       energy  density   DIIS  
       r  t  s  t  d       total energy    change  change    error 
  
etot    1  N  N  1  U   -5575.59450527306           5.9E-06  1.6E-04
etot    2  N  N  1  U   -5575.59448716120 -1.8E-05  0.0E+00  0.0E+00
  
  
 Energy components, in hartrees:
   (A)  Total zero-electron terms....   20749.21857505480
   (B)    Nuclear-nuclear............   20746.93526717432
   (C)    Nuclear-solvent............       2.28330788048
   (E)  Total one-electron terms.....  -49024.26994902755
   (F)    Electron-nuclear...........  -54558.00660815713
   (G)    Electron-solvent...........      -2.32575434939
   (H)    Kinetic....................    5536.06241347898
   (I)  Total two-electron terms.....   22699.45688681155
   (J)    Coulomb....................   23350.72354287063
   (K)    Exchange+Correlation.......    -651.26665605908
   (L)  Electronic energy............  -26324.81306221600  (E+I)
   (N)  Total quantum mech. energy...   -5575.59448716120  (A+L)
   (O)  Gas phase energy.............   -5575.55345330830
   (P)  Solution phase energy........   -5575.57326392674  (Q+R+S)
   (Q)    Total solute energy........   -5575.55204069229  (N-C-G)
   (R)    Total solvent energy.......      -0.02122323446  (C/2+G/2)
   (S)    Solute cavity energy.......       0.00000000000
   (U)  Reorganization energy........       0.00141261601  (Q-O)
   (V)  Solvation energy.............      -0.01981061845  (P-O)
  
 SCFE:  Solution phase energy: DFT(m06-2x)      -5575.57326392674 hartrees
        SCF iterations:   2
  
 
 HOMO energy:    -0.25505
 LUMO energy:    -0.06728
 
  Orbital energies (hartrees): 
   -90.18355   -90.15687   -78.20796   -67.01007   -67.00835   -25.29702
   -25.29302   -25.29216   -19.68889   -19.68846   -19.66329   -19.66056
   -19.63755   -19.62642   -19.59872   -14.82611   -14.82167   -14.79398
   -14.74260   -10.80944   -10.66666   -10.63747   -10.62522   -10.62435
   -10.61213   -10.60557   -10.60005   -10.58823   -10.58667   -10.58299
   -10.57779   -10.57599   -10.57228   -10.57132   -10.56976   -10.56948
   -10.56906   -10.56369   -10.56343   -10.56319   -10.56282   -10.56280
   -10.56129   -10.56051   -10.56016   -10.55645   -10.55449   -10.55413
   -10.55403   -10.55389   -10.55363   -10.55299   -10.55263   -10.55173
   -10.55168   -10.55087   -10.55053   -10.55037   -10.55004   -10.55003
   -10.54992   -10.54966   -10.54941   -10.54933   -10.54901   -10.54844
   -10.54791   -10.54762   -10.54740   -10.54734   -10.54699   -10.54668
   -10.54615   -10.54605   -10.54590   -10.54579   -10.54522   -10.54507
   -10.54501   -10.54483   -10.54373   -10.54371   -10.54311   -10.54305
   -10.54288   -10.54227   -10.53468   -10.53405   -10.53249   -10.53195
   -10.52906   -10.52675    -8.49414    -8.46546    -6.98734    -6.41639
    -6.41532    -6.41448    -6.38733    -6.38699    -6.38678    -5.54101
    -5.53980    -5.10587    -5.10475    -5.10312    -3.85071    -3.85049
    -3.85041    -3.84957    -3.84931    -3.84901    -1.46061    -1.37088
    -1.36738    -1.25607    -1.22840    -1.21858    -1.18481    -1.14281
    -1.10975    -1.10535    -1.08599    -1.08216    -1.07120    -0.99336
    -0.98320    -0.97139    -0.96904    -0.94645    -0.94522    -0.94242
    -0.94043    -0.93886    -0.93768    -0.92427    -0.92340    -0.91240
    -0.90299    -0.89604    -0.89195    -0.87809    -0.85495    -0.85133
    -0.84527    -0.84437    -0.84040    -0.83821    -0.83694    -0.83633
    -0.83612    -0.83319    -0.83173    -0.83056    -0.82999    -0.82793
    -0.82750    -0.82609    -0.82596    -0.82395    -0.82334    -0.80784
    -0.80226    -0.76459    -0.75845    -0.73908    -0.73129    -0.71911
    -0.71050    -0.70498    -0.69923    -0.69390    -0.69236    -0.69026
    -0.68629    -0.68618    -0.68486    -0.68184    -0.68051    -0.67761
    -0.67645    -0.67550    -0.67425    -0.66996    -0.66959    -0.66810
    -0.66690    -0.66264    -0.66222    -0.65889    -0.65854    -0.65295
    -0.65103    -0.64615    -0.63719    -0.62655    -0.61464    -0.61009
    -0.60869    -0.60361    -0.60066    -0.58687    -0.58290    -0.58191
    -0.58176    -0.57940    -0.57819    -0.57799    -0.57504    -0.57337
    -0.56621    -0.56386    -0.56143    -0.56063    -0.55328    -0.55189
    -0.54700    -0.54650    -0.54126    -0.53900    -0.53756    -0.53445
    -0.53137    -0.52897    -0.52710    -0.52560    -0.52262    -0.52000
    -0.51901    -0.51711    -0.51660    -0.51501    -0.51406    -0.51336
    -0.51134    -0.51081    -0.50696    -0.50487    -0.50241    -0.50152
    -0.50152    -0.49972    -0.49812    -0.49727    -0.49705    -0.49563
    -0.49482    -0.49381    -0.49331    -0.49096    -0.49005    -0.48927
    -0.48504    -0.48357    -0.48237    -0.48224    -0.47991    -0.47854
    -0.47779    -0.47553    -0.47324    -0.46902    -0.46859    -0.46595
    -0.46070    -0.45580    -0.45388    -0.45167    -0.44989    -0.44901
    -0.44675    -0.44477    -0.43666    -0.43604    -0.43357    -0.43310
    -0.42885    -0.42739    -0.42563    -0.42401    -0.42180    -0.42176
    -0.42078    -0.41819    -0.41769    -0.41295    -0.41047    -0.40838
    -0.40366    -0.40189    -0.40030    -0.39760    -0.39544    -0.39543
    -0.39230    -0.39224    -0.39180    -0.38852    -0.38773    -0.38765
    -0.38600    -0.38311    -0.38152    -0.37984    -0.37493    -0.36570
    -0.36314    -0.36089    -0.35579    -0.35380    -0.34883    -0.34765
    -0.34273    -0.34227    -0.34033    -0.33887    -0.33802    -0.33406
    -0.33057    -0.32900    -0.32383    -0.31983    -0.31088    -0.30751
    -0.30486    -0.30344    -0.30294    -0.29983    -0.29747    -0.29722
    -0.29590    -0.29384    -0.29354    -0.29139    -0.29060    -0.28940
    -0.28559    -0.28220    -0.27509    -0.25505    -0.06728    -0.02179
    -0.02120    -0.00153    -0.00121     0.00809     0.01458     0.01810
     0.02010     0.02320
 
  Peak memory usage:    859 Mb
  
  end of program scf
   
 Time(scf)  user:     2817.0  user+sys:     2830.0  wallclock:     5835.9
  
  start of program sole
  
    SCRF                   solvation energy
  iteration          Hartrees            kcal/mol
     0               0.0000000            0.0000
     1              -0.0182846          -11.4738
     2              -0.0195312          -12.2560
     3              -0.0198106          -12.4314
  
  solvation energy not yet converged... 
  
  Peak memory usage:    635 Mb
  
  end of program sole
   
 Time(sole)  user:        0.0  user+sys:        0.0  wallclock:        0.4
  
  start of program ch
  
  gridpoints used for charge fit        16394
    out of a possible maximum of        16394
  
   Electrostatic potential fitting constrained to reproduce
     total charge:                yes
     dipole moment:               no 
     traceless quadrupole moment: no 
     traceless octapole moment:   no 
  
  Atomic charges from electrostatic potential: 
   
 Atom       C1           C2           C3           C4           C5      
 Charge   -0.10582     -0.04312     -0.18472      0.19977      0.08965
   
 Atom       C6           C7           C8           C9           C10     
 Charge   -0.24014     -0.33441     -0.10574     -0.04292     -0.02678
   
 Atom       C11          O12          Si13         C14          C15     
 Charge    0.13085     -0.28598     -0.24132      0.03983      0.00163
   
 Atom       C16          C17          C18          C19          C20     
 Charge    0.31003     -0.13567     -0.53907     -0.28478      0.22863
   
 Atom       Si21         O22          C23          C24          P25     
 Charge   -0.26167     -0.23990     -0.18668     -0.09564      1.00647
   
 Atom       O26          N27          C28          C29          C30     
 Charge   -0.62509     -0.67905      0.21081      0.19866      0.45918
   
 Atom       C31          C32          C33          C34          C35     
 Charge    0.07975      0.20332      0.24217     -0.17183     -0.24380
   
 Atom       C36          C37          C38          C39          C40     
 Charge   -0.19289     -0.27998     -0.21908     -0.42959     -0.00893
   
 Atom       C41          C42          C43          C44          C45     
 Charge   -0.16758     -0.18788     -0.19947     -0.22886     -0.20504
   
 Atom       C46          C47          C48          C49          C50     
 Charge   -0.14969     -0.16702     -0.09962     -0.09472     -0.20205
   
 Atom       C51          C52          C53          C54          C55     
 Charge   -0.04383     -0.12159     -0.17312     -0.07516     -0.16074
   
 Atom       C56          C57          C58          C59          C60     
 Charge   -0.16089     -0.13561     -0.12552     -0.16912     -0.11559
   
 Atom       C61          C62          C63          C64          C65     
 Charge   -0.11471     -0.12659     -0.15256     -0.07683     -0.22535
   
 Atom       C66          C67          C68          C69          C70     
 Charge    0.16586     -0.31177      0.11201     -0.21480      0.12637
   
 Atom       N71          S72          O73          O74          C75     
 Charge   -0.48753      0.70320     -0.42505     -0.47321      0.55250
   
 Atom       C76          C77          C78          C79          N80     
 Charge   -0.45056      0.20857     -0.42674      0.44794     -0.65107
   
 Atom       N81          C82          C83          C84          C85     
 Charge   -0.16045      0.01934     -0.24349     -0.17197      0.04654
   
 Atom       H86          H87          H88          H89          H90     
 Charge    0.11077      0.15556      0.15323      0.16567      0.13992
   
 Atom       H91          H92          H93          H94          H95     
 Charge    0.11708      0.23021      0.16478      0.15494      0.13710
   
 Atom       H96          H97          H98          H99          H100    
 Charge    0.12708      0.11294      0.14835      0.14121      0.12591
   
 Atom       H101         H102         H103         H104         H105    
 Charge    0.22258      0.08075      0.12318      0.10894      0.12564
   
 Atom       H106         H107         H108         H109         H110    
 Charge    0.14152      0.15922      0.14353      0.14513      0.13696
   
 Atom       H111         H112         H113         H114         H115    
 Charge    0.12553      0.14447      0.11244      0.13459      0.12455
   
 Atom       H116         H117         H118         H119         H120    
 Charge    0.12024      0.13910      0.14536      0.13899      0.13920
   
 Atom       H121         H122         H123         H124         H125    
 Charge    0.14396      0.13566      0.10409      0.12421      0.14319
   
 Atom       H126         H127         H128         H129         H130    
 Charge    0.13987      0.13096      0.20304      0.03968      0.15359
   
 Atom       H131         H132         H133         H134         H135    
 Charge    0.15357      0.20488      0.09861      0.17990      0.06379
   
 Atom       H136         H137         H138         H139         H140    
 Charge    0.36717      0.17250      0.18664      0.17832      0.08929
   
 Atom       S141         O142         C143         O144         F145    
 Charge    0.81828     -0.49076      0.50014     -0.54419     -0.15877
   
 Atom       F146         F147         H148    
 Charge   -0.14964     -0.15944      0.39209
  
  sum of atomic charges:     0.000000
   
 RMS Error   1.03E-03 hartrees
 
  Peak memory usage:    588 Mb
  
  end of program ch
   
 Time(ch)  user:       19.0  user+sys:       20.0  wallclock:       40.7
  
  start of program post
  
  Writing input files for PBF
  Peak memory usage:    536 Mb
  
  end of program post
   
 Time(post)  user:        0.0  user+sys:        0.0  wallclock:        0.4

  start of program pbf

Pbf Version 4.00

Molecular surface area:      820.93554   [A2]
Reaction field energy:       -20.51891   [kT]
  Peak memory usage: 560 Mb

  end of program pbf

 Time(pbf)  user:       14.2  user+sys:       14.3  wallclock:       33.8
  
  start of program solv
  
   number of surface charges from PBF   13352
   sum of surface charges     -0.00035
   
  nuclear repulsion energy.......   20746.935267174 hartrees
  Peak memory usage:    701 Mb
  
  end of program solv
   
 Time(solv)  user:       39.0  user+sys:       39.0  wallclock:       80.3
  
  start of program scf
  
  
       i  u  d  i  g                   
       t  p  i  c  r                                 RMS    maximum
       e  d  i  u  i                       energy  density   DIIS  
       r  t  s  t  d       total energy    change  change    error 
  
etot    1  N  N  1  U   -5575.59432539518           8.9E-06  2.5E-04
etot    2  N  Y  1  U   -5575.59426908987 -5.6E-05  5.8E-06  4.3E-04
etot    3  N  Y  1  U   -5575.59435095893  8.2E-05  1.9E-07  1.0E-05
etot    4  N  N  1  U   -5575.59435095270 -6.2E-09  0.0E+00  0.0E+00
  
  
 Energy components, in hartrees:
   (A)  Total zero-electron terms....   20749.19184282506
   (B)    Nuclear-nuclear............   20746.93526717432
   (C)    Nuclear-solvent............       2.25657565074
   (E)  Total one-electron terms.....  -49024.36170955215
   (F)    Electron-nuclear...........  -54558.13048237836
   (G)    Electron-solvent...........      -2.29896382346
   (H)    Kinetic....................    5536.06773664968
   (I)  Total two-electron terms.....   22699.57551577439
   (J)    Coulomb....................   23350.84258919291
   (K)    Exchange+Correlation.......    -651.26707341852
   (L)  Electronic energy............  -26324.78619377776  (E+I)
   (N)  Total quantum mech. energy...   -5575.59435095270  (A+L)
   (O)  Gas phase energy.............   -5575.55345330830
   (P)  Solution phase energy........   -5575.57315686633  (Q+R+S)
   (Q)    Total solute energy........   -5575.55196277997  (N-C-G)
   (R)    Total solvent energy.......      -0.02119408636  (C/2+G/2)
   (S)    Solute cavity energy.......       0.00000000000
   (U)  Reorganization energy........       0.00149052833  (Q-O)
   (V)  Solvation energy.............      -0.01970355804  (P-O)
  
 SCFE:  Solution phase energy: DFT(m06-2x)      -5575.57315686633 hartrees
        SCF iterations:   4
  
 
 HOMO energy:    -0.25481
 LUMO energy:    -0.06697
 
  Orbital energies (hartrees): 
   -90.18216   -90.15611   -78.20765   -67.00923   -67.00853   -25.29618
   -25.29290   -25.29211   -19.68869   -19.68823   -19.66403   -19.66076
   -19.63472   -19.62854   -19.59930   -14.82302   -14.82104   -14.79083
   -14.74119   -10.80902   -10.66494   -10.63595   -10.62441   -10.62436
   -10.61321   -10.60489   -10.60017   -10.58928   -10.58807   -10.58167
   -10.57875   -10.57712   -10.57187   -10.57115   -10.56997   -10.56930
   -10.56855   -10.56499   -10.56358   -10.56332   -10.56261   -10.56211
   -10.56110   -10.56048   -10.55947   -10.55570   -10.55422   -10.55418
   -10.55416   -10.55376   -10.55360   -10.55308   -10.55264   -10.55187
   -10.55172   -10.55116   -10.55105   -10.55029   -10.55025   -10.55002
   -10.54978   -10.54968   -10.54965   -10.54911   -10.54906   -10.54832
   -10.54803   -10.54793   -10.54745   -10.54744   -10.54669   -10.54651
   -10.54636   -10.54614   -10.54579   -10.54560   -10.54529   -10.54512
   -10.54431   -10.54402   -10.54401   -10.54390   -10.54303   -10.54261
   -10.54224   -10.54193   -10.53425   -10.53399   -10.53280   -10.53097
   -10.52826   -10.52696    -8.49284    -8.46472    -6.98704    -6.41508
    -6.41402    -6.41317    -6.38659    -6.38625    -6.38604    -5.54018
    -5.53998    -5.10557    -5.10444    -5.10282    -3.84988    -3.84976
    -3.84966    -3.84958    -3.84949    -3.84920    -1.46022    -1.37037
    -1.36716    -1.25552    -1.22804    -1.21804    -1.18453    -1.14248
    -1.10987    -1.10479    -1.08471    -1.08218    -1.06957    -0.99272
    -0.98286    -0.97097    -0.96884    -0.94656    -0.94498    -0.94256
    -0.94015    -0.93858    -0.93789    -0.92458    -0.92330    -0.91222
    -0.90257    -0.89639    -0.89169    -0.87764    -0.85482    -0.85100
    -0.84517    -0.84422    -0.84064    -0.83798    -0.83702    -0.83629
    -0.83611    -0.83281    -0.83159    -0.83075    -0.82973    -0.82782
    -0.82733    -0.82601    -0.82585    -0.82407    -0.82293    -0.80728
    -0.80206    -0.76409    -0.75791    -0.73885    -0.73094    -0.71845
    -0.71017    -0.70482    -0.69914    -0.69354    -0.69212    -0.69002
    -0.68600    -0.68590    -0.68453    -0.68191    -0.68025    -0.67739
    -0.67656    -0.67535    -0.67426    -0.66996    -0.66957    -0.66793
    -0.66711    -0.66275    -0.66205    -0.65906    -0.65814    -0.65250
    -0.65077    -0.64622    -0.63682    -0.62639    -0.61418    -0.60981
    -0.60853    -0.60345    -0.60050    -0.58648    -0.58281    -0.58185
    -0.58130    -0.57932    -0.57820    -0.57772    -0.57493    -0.57328
    -0.56588    -0.56349    -0.56109    -0.56047    -0.55319    -0.55168
    -0.54686    -0.54616    -0.54100    -0.53876    -0.53746    -0.53391
    -0.53141    -0.52867    -0.52691    -0.52530    -0.52234    -0.52001
    -0.51910    -0.51714    -0.51640    -0.51483    -0.51392    -0.51316
    -0.51118    -0.51047    -0.50688    -0.50459    -0.50249    -0.50155
    -0.50134    -0.49955    -0.49772    -0.49713    -0.49649    -0.49557
    -0.49453    -0.49395    -0.49307    -0.49092    -0.48985    -0.48899
    -0.48488    -0.48364    -0.48247    -0.48212    -0.47998    -0.47840
    -0.47744    -0.47569    -0.47345    -0.46926    -0.46899    -0.46573
    -0.46084    -0.45556    -0.45381    -0.45168    -0.44986    -0.44883
    -0.44663    -0.44448    -0.43639    -0.43554    -0.43351    -0.43303
    -0.42864    -0.42741    -0.42549    -0.42390    -0.42186    -0.42150
    -0.42065    -0.41807    -0.41743    -0.41286    -0.41027    -0.40813
    -0.40327    -0.40126    -0.40012    -0.39712    -0.39541    -0.39508
    -0.39237    -0.39217    -0.39184    -0.38836    -0.38754    -0.38735
    -0.38623    -0.38296    -0.38085    -0.37948    -0.37465    -0.36573
    -0.36291    -0.36059    -0.35538    -0.35375    -0.34793    -0.34725
    -0.34263    -0.34210    -0.34032    -0.33861    -0.33758    -0.33432
    -0.33026    -0.32874    -0.32334    -0.31924    -0.31066    -0.30761
    -0.30458    -0.30353    -0.30265    -0.29999    -0.29747    -0.29693
    -0.29579    -0.29399    -0.29315    -0.29108    -0.29070    -0.28908
    -0.28551    -0.28211    -0.27497    -0.25481    -0.06697    -0.02136
    -0.02093    -0.00142    -0.00114     0.00837     0.01462     0.01813
     0.02029     0.02348
 
  Peak memory usage:    859 Mb
  
  end of program scf
   
 Time(scf)  user:     7925.0  user+sys:     7960.0  wallclock:    10277.0
  
  start of program sole
  
    SCRF                   solvation energy
  iteration          Hartrees            kcal/mol
     0               0.0000000            0.0000
     1              -0.0182846          -11.4738
     2              -0.0195312          -12.2560
     3              -0.0198106          -12.4314
     4              -0.0197036          -12.3642
  
  stopping: solvation energy converged
  
  iterations:   4    sfinal:    -12.3642 kcal/mol
  
  Peak memory usage:    635 Mb
  
  end of program sole
   
 Time(sole)  user:        0.0  user+sys:        0.0  wallclock:        0.1
  
  start of program post
  
  Writing input files for PBF
  Peak memory usage:    536 Mb
  
  end of program post
   
 Time(post)  user:        0.0  user+sys:        0.0  wallclock:        0.3

 Total cpu seconds     user:   61860.000   user+sys:   62157.000
  
 Total elapsed time:    86298 seconds

Job Toru-NTf-Sulfonyl-5-chkp-unrestrained-uff-acc-sol-fine-grid_2 completed on tethys at Thu Feb 16 05:30:40 2017
