Job Toru-SiPh3-Type-I-E-2-chkp4-unrestrained-IRC-max-disp-SPE started on tethys at Tue Mar 14 16:29:04 2017
jobid: tethys-0-58c81a4d

  +--------------------------------------------------------------------+
  |  Jaguar version 9.5, release  11                                   |
  |                                                                    |
  |  Copyright Schrodinger, Inc.                                       |
  |  All Rights Reserved.                                              |
  |                                                                    |
  |  The following have contributed to Jaguar (listed alphabetically): |
  |  Mike Beachy, Art Bochevarov, Dale Braden, Yixiang Cao,            |
  |  Chris Cortis, Rich Friesner, Bill Goddard, Hod Greeley,           |
  |  Tom Hughes, Leif Jacobson, Jean-Marc Langlois,                    |
  |  Daniel Mainz, Rob Murphy, Dean Philipp, Tom Pollard,              |
  |  Murco Ringnalda, Mark Watson, Haoyu Yu.                           |
  |                                                                    |
  |  Use of this program should be acknowledged in publications as:    |
  |                                                                    |
  |  Jaguar, version 9.5, Schrodinger, Inc., New York, NY, 2017.       |
  |                                                                    |
  |  A. D. Bochevarov, E. Harder, T. F. Hughes, J. R. Greenwood,       |
  |  D. A. Braden, D. M. Philipp, D. Rinaldo, M. D. Halls,             |
  |  J. Zhang, R. A. Friesner, "Jaguar: A High-Performance Quantum     |
  |  Chemistry Software Program with Strengths in Life and Materials   |
  |  Sciences", Int. J. Quantum Chem., 2013, 113(18), 2110-2142.       |
  +--------------------------------------------------------------------+
  
  start of program pre
  
  Job name: Toru-SiPh3-Type-I-E-2-chkp4-unrestrained-IRC-max-disp-SPE
  Executables used: /usr/local/shared/schrodinger/current/jaguar-v9.5/bin/Linux-x86_64
  Temporary files : /scratch/ab2144/Toru-SiPh3-Type-I-E-2-chkp4-unrestrained-IRC-max-disp-SPE
  Maestro file (input):  Toru-SiPh3-Type-I-E-2-chkp4-unrestrained-IRC-max-disp-SPE.mae
  Maestro file (output): Toru-SiPh3-Type-I-E-2-chkp4-unrestrained-IRC-max-disp-SPE.01.mae
  
  basis set:             6-31g**                         
  net molecular charge:    0
  multiplicity:            1
  
  keygrid settings 
    wispc.....   7.500E-01
    ldens.....   0
    denspc....   7.500E-01
  
   grid     daf set  nls  grid set  Q type
  ------    -------  ---  --------  ------
  coarse       1      1       1        1
  medium       2      2       2        1
  fine         3      2       3        0
  ultrafine    4      2       4        1
  charge       0      1      -1        1
  gradient     5      2       4        1
  density      0      1       0        0
  DFT-fine     0      1     -13        0
  DFT-med.     0      1     -13        0
  DFT-grad     0      1     -13        0
  DFT-der2     0      1       0        0
  DFT-cphf     0      1       0        0
  LMP2-enrg    4      2       4        1
  LMP2-grad    5      2       2        1
  DFT-cphf2    0      1       0        0
  PBF-dens     0      1       0        0
  plotting     0      1       0        0
  Rel-grad     0      1     -17        0
  
  idftgrdm  100
  ndftgrdm   50    0    0
  idftgrdf  111
  ndftgrdf   85    0    0
  idftgrdg  111
  ndftgrdg   80    3    0
  idftgrdu  433
  ndftgrdu  105    0    0
  idftgrdd  433
  ndftgrdd  105    0    0
  idftgrdc  433
  ndftgrdc   26    0    0
  idftgrdp  433
  ndftgrdp   18    0    0
  
  number of basis functions....         1571
  
 Input geometry:
                                   angstroms
  atom               x                 y                 z
  C1           -1.1438000000     -5.2313000000     -1.0702000000 
  C2           -1.9021000000     -4.0369000000     -0.6010000000 
  C3           -1.7907000000     -6.3033000000     -1.5415000000 
  C4           -3.2482000000     -4.0327000000     -0.7207000000 
  C5           -1.2097000000     -2.8360000000     -0.0361000000 
  C6           -3.9550000000     -5.2278000000     -1.2381000000 
  C7           -4.0142000000     -2.8105000000     -0.4183000000 
  C8           -3.2630000000     -6.3063000000     -1.6187000000 
  C9           -1.9148000000     -1.6970000000      0.1732000000 
  C10           0.2554000000     -2.8568000000      0.2233000000 
  C11          -3.3868000000     -1.6825000000     -0.0576000000 
  O12          -1.3216000000     -0.6153000000      0.7814000000 
  Si13         -4.3327000000     -0.0744000000      0.0016000000 
  C14           0.8518000000     -3.7742000000      1.0196000000 
  C15           1.0919000000     -1.8578000000     -0.4957000000 
  C16           2.3348000000     -3.8643000000      1.0480000000 
  C17           0.0924000000     -4.7259000000      1.8689000000 
  C18           3.0774000000     -3.0324000000      0.3053000000 
  C19           2.9641000000     -4.9167000000      1.8699000000 
  C20           2.4341000000     -1.9830000000     -0.5159000000 
  Si21          3.5376000000     -0.8637000000     -1.5254000000 
  O22           0.4759000000     -0.8046000000     -1.1238000000 
  C23           0.7325000000     -5.6554000000      2.5882000000 
  C24           2.2080000000     -5.7592000000      2.5824000000 
  P25          -0.2450000000      0.2373000000     -0.1062000000 
  O26          -0.8135000000      1.3859000000     -0.8410000000 
  O27           0.8650000000      0.5450000000      0.9744000000 
  C28          -3.9940000000      0.8994000000     -1.5464000000 
  C29          -6.1738000000     -0.3552000000     -0.0034000000 
  C30          -3.8090000000      0.8432000000      1.5300000000 
  C31           4.3862000000      0.3583000000     -0.4014000000 
  C32           4.7844000000     -1.9757000000     -2.3553000000 
  C33           2.5521000000      0.0289000000     -2.8375000000 
  C34          -3.1892000000      0.4204000000     -2.5112000000 
  C35          -4.7073000000      2.1809000000     -1.7629000000 
  C36          -6.9393000000     -0.0345000000      1.0539000000 
  C37          -6.8169000000     -0.8841000000     -1.2317000000 
  C38          -3.2846000000      2.0778000000      1.4598000000 
  C39          -3.9469000000      0.1827000000      2.8498000000 
  C40           5.2014000000      1.2986000000     -0.9103000000 
  C41           4.1821000000      0.2931000000      1.0662000000 
  C42           6.1036000000     -1.7189000000     -2.3074000000 
  C43           4.3129000000     -3.2084000000     -3.0348000000 
  C44           1.9154000000     -0.6668000000     -3.7962000000 
  C45           2.4052000000      1.5060000000     -2.8000000000 
  C46          -3.0031000000      1.1756000000     -3.7673000000 
  C47          -3.6593000000      2.3254000000     -3.9616000000 
  C48          -4.5497000000      2.8546000000     -2.9088000000 
  C49          -8.4017000000     -0.2436000000      1.0044000000 
  C50          -8.9728000000     -0.7367000000     -0.1007000000 
  C51          -8.1418000000     -1.0683000000     -1.2750000000 
  C52          -2.8906000000      2.7880000000      2.6937000000 
  C53          -3.0534000000      2.2017000000      3.8856000000 
  C54          -3.5973000000      0.8313000000      3.9668000000 
  C55           5.8988000000      2.2454000000     -0.0167000000 
  C56           5.7258000000      2.1676000000      1.3072000000 
  C57           4.8234000000      1.1468000000      1.8741000000 
  C58           7.0655000000     -2.6291000000     -2.9639000000 
  C59           6.6301000000     -3.7257000000     -3.5937000000 
  C60           5.1870000000     -4.0334000000     -3.6237000000 
  C61           1.0928000000      0.0300000000     -4.8064000000 
  C62           0.9773000000      1.3615000000     -4.7737000000 
  C63           1.6692000000      2.1344000000     -3.7249000000 
  C64           3.9704000000      5.5459000000     -0.3581000000 
  C65           3.7527000000      4.8889000000      0.8476000000 
  C66           2.5820000000      4.1323000000      1.0424000000 
  C67           1.6131000000      4.0754000000      0.0230000000 
  C68           1.8139000000      4.7723000000     -1.1626000000 
  C69           2.9970000000      5.4922000000     -1.3587000000 
  C70           2.3973000000      3.4899000000      2.3334000000 
  N71           1.4861000000      2.6065000000      2.5795000000 
  S72           1.3400000000      2.1677000000      4.2559000000 
  O73           2.4967000000      2.6572000000      5.0098000000 
  O74          -0.0223000000      2.5411000000      4.6420000000 
  C75           1.3890000000      0.3530000000      4.1721000000 
  C76           0.1825000000     -0.3429000000      4.1484000000 
  C77           0.2608000000     -1.7347000000      4.1573000000 
  C78           1.5172000000     -2.3365000000      4.1920000000 
  C79           2.6550000000     -1.5272000000      4.1873000000 
  N80           2.5966000000     -0.1918000000      4.1808000000 
  N81          -1.5293000000      3.9670000000     -1.8914000000 
  C82          -1.2701000000      4.4369000000     -3.1555000000 
  C83          -1.5760000000      5.7835000000     -3.1836000000 
  C84          -2.0340000000      6.1380000000     -1.8831000000 
  C85          -1.9935000000      4.9948000000     -1.1106000000 
  H86          -0.0627000000     -5.2436000000     -1.0557000000 
  H87          -1.2340000000     -7.1672000000     -1.8813000000 
  H88          -5.0353000000     -5.2304000000     -1.3148000000 
  H89          -5.0819000000     -2.8243000000     -0.5788000000 
  H90          -3.7802000000     -7.1777000000     -1.9990000000 
  H91          -0.9867000000     -4.6735000000      1.9321000000 
  H92           4.1580000000     -3.1139000000      0.3145000000 
  H93           4.0426000000     -5.0167000000      1.8976000000 
  H94           0.1615000000     -6.3400000000      3.2022000000 
  H95           2.6828000000     -6.5268000000      3.1797000000 
  H96           0.8989000000      1.4263000000      1.4456000000 
  H97          -2.6750000000     -0.5239000000     -2.3967000000 
  H98          -5.3648000000      2.5731000000     -0.9971000000 
  H99          -6.5105000000      0.3849000000      1.9520000000 
  H100         -6.2163000000     -1.1218000000     -2.1011000000 
  H101         -3.1455000000      2.5725000000      0.5101000000 
  H102         -4.3380000000     -0.8250000000      2.9153000000 
  H103          5.3647000000      1.3707000000     -1.9785000000 
  H104          3.5198000000     -0.4448000000      1.4958000000 
  H105          6.4919000000     -0.8539000000     -1.7930000000 
  H106          3.2627000000     -3.4671000000     -3.0333000000 
  H107          1.9682000000     -1.7444000000     -3.8319000000 
  H108          2.8754000000      2.0887000000     -2.0219000000 
  H109         -2.3416000000      0.7914000000     -4.5330000000 
  H110         -3.5276000000      2.8774000000     -4.8832000000 
  H111         -5.0704000000      3.7904000000     -3.0651000000 
  H112         -9.0097000000      0.0057000000      1.8644000000 
  H113        -10.0438000000     -0.8887000000     -0.1382000000 
  H114         -8.6075000000     -1.4561000000     -2.1717000000 
  H115         -2.4788000000      3.7870000000      2.6310000000 
  H116         -2.7778000000      2.7251000000      4.7917000000 
  H117         -3.7040000000      0.3507000000      4.9305000000 
  H118          6.5517000000      2.9998000000     -0.4359000000 
  H119          6.2365000000      2.8595000000      1.9642000000 
  H120          4.6787000000      1.0980000000      2.9448000000 
  H121          8.1241000000     -2.4057000000     -2.9326000000 
  H122          7.3339000000     -4.3936000000     -4.0732000000 
  H123          4.8396000000     -4.9353000000     -4.1109000000 
  H124          0.5805000000     -0.5408000000     -5.5699000000 
  H125          0.3725000000      1.8738000000     -5.5108000000 
  H126          1.5743000000      3.2109000000     -3.7050000000 
  H127          4.8834000000      6.1125000000     -0.5111000000 
  H128          4.4892000000      4.9480000000      1.6442000000 
  H129          0.6951000000      3.5184000000      0.1703000000 
  H130          1.0418000000      4.7672000000     -1.9243000000 
  H131          3.1508000000      6.0274000000     -2.2911000000 
  H132          3.0740000000      3.7969000000      3.1378000000 
  H133         -0.7601000000      0.1876000000      4.1349000000 
  H134         -0.6439000000     -2.3344000000      4.1459000000 
  H135          1.6219000000     -3.4145000000      4.2304000000 
  H136          3.6503000000     -1.9648000000      4.1946000000 
  H137         -1.3796000000      3.0120000000     -1.5762000000 
  H138         -0.9244000000      3.7734000000     -3.9340000000 
  H139         -1.4894000000      6.4350000000     -4.0421000000 
  H140         -2.3568000000      7.1152000000     -1.5518000000 
  H141         -2.2506000000      4.8351000000     -0.0741000000 
   
  principal moments of inertia:
        amu*angstrom^2:    17840.79735    22559.88593    25867.06196
                g*cm^2: 2.96253373E-36 3.74615673E-36 4.29532616E-36
   
  rotational constants:
               cm^(-1):      0.00094489      0.00074724      0.00065170
                   GHz:      0.02832715      0.02240167      0.01953755
   
  Molecular weight:    1177.32 amu
   
  Stoichiometry: Si2C72PN3H56SO6
[running at reduced cpu priority]
  Molecular Point Group: C1      
  Point Group used: C1
  
  nuclear repulsion energy.......   17435.815594690 hartrees
 
 Non-default options chosen:
   SCF calculation type: DFT(m06-2x)                 
   DFT=M06-2X
   Solvation energy will be computed using PBF
     -solute cavity energy will not be included
     -surface area terms will not be included
   Highest accuracy cutoffs used in SCF
   Solvent: other                                                           
   Internal dielectric constant:    1.000
   Continuum dielectric constant:   2.380
   Solvent probe molecule radius:   2.760
  
 Temporary integer options set:
     73=  2
  
  atom       vdw   vdw2    cov     mass  grid  daf  charge   basis
  C1        1.949  1.900  0.770   12.000    Y    Y      Y    6-31g**
  C2        1.949  1.900  0.770   12.000    Y    Y      Y    6-31g**
  C3        1.949  1.900  0.770   12.000    Y    Y      Y    6-31g**
  C4        1.949  1.900  0.770   12.000    Y    Y      Y    6-31g**
  C5        1.949  1.900  0.770   12.000    Y    Y      Y    6-31g**
  C6        1.949  1.900  0.770   12.000    Y    Y      Y    6-31g**
  C7        1.949  1.900  0.770   12.000    Y    Y      Y    6-31g**
  C8        1.949  1.900  0.770   12.000    Y    Y      Y    6-31g**
  C9        1.949  1.900  0.770   12.000    Y    Y      Y    6-31g**
  C10       1.949  1.900  0.770   12.000    Y    Y      Y    6-31g**
  C11       1.949  1.900  0.770   12.000    Y    Y      Y    6-31g**
  O12       1.702  1.600  0.730   15.995    Y    Y      Y    6-31g**
  Si13      2.217  2.147  1.110   27.977    Y    Y      Y    6-31g**
  C14       1.949  1.900  0.770   12.000    Y    Y      Y    6-31g**
  C15       1.949  1.900  0.770   12.000    Y    Y      Y    6-31g**
  C16       1.949  1.900  0.770   12.000    Y    Y      Y    6-31g**
  C17       1.949  1.900  0.770   12.000    Y    Y      Y    6-31g**
  C18       1.949  1.900  0.770   12.000    Y    Y      Y    6-31g**
  C19       1.949  1.900  0.770   12.000    Y    Y      Y    6-31g**
  C20       1.949  1.900  0.770   12.000    Y    Y      Y    6-31g**
  Si21      2.217  2.147  1.110   27.977    Y    Y      Y    6-31g**
  O22       1.702  1.600  0.730   15.995    Y    Y      Y    6-31g**
  C23       1.949  1.900  0.770   12.000    Y    Y      Y    6-31g**
  C24       1.949  1.900  0.770   12.000    Y    Y      Y    6-31g**
  P25       2.147  2.074  1.060   30.974    Y    Y      Y    6-31g**
  O26       1.702  1.600  0.730   15.995    Y    Y      Y    6-31g**
  O27       1.702  1.600  0.730   15.995    Y    Y      Y    6-31g**
  C28       1.949  1.900  0.770   12.000    Y    Y      Y    6-31g**
  C29       1.949  1.900  0.770   12.000    Y    Y      Y    6-31g**
  C30       1.949  1.900  0.770   12.000    Y    Y      Y    6-31g**
  C31       1.949  1.900  0.770   12.000    Y    Y      Y    6-31g**
  C32       1.949  1.900  0.770   12.000    Y    Y      Y    6-31g**
  C33       1.949  1.900  0.770   12.000    Y    Y      Y    6-31g**
  C34       1.949  1.900  0.770   12.000    Y    Y      Y    6-31g**
  C35       1.949  1.900  0.770   12.000    Y    Y      Y    6-31g**
  C36       1.949  1.900  0.770   12.000    Y    Y      Y    6-31g**
  C37       1.949  1.900  0.770   12.000    Y    Y      Y    6-31g**
  C38       1.949  1.900  0.770   12.000    Y    Y      Y    6-31g**
  C39       1.949  1.900  0.770   12.000    Y    Y      Y    6-31g**
  C40       1.949  1.900  0.770   12.000    Y    Y      Y    6-31g**
  C41       1.949  1.900  0.770   12.000    Y    Y      Y    6-31g**
  C42       1.949  1.900  0.770   12.000    Y    Y      Y    6-31g**
  C43       1.949  1.900  0.770   12.000    Y    Y      Y    6-31g**
  C44       1.949  1.900  0.770   12.000    Y    Y      Y    6-31g**
  C45       1.949  1.900  0.770   12.000    Y    Y      Y    6-31g**
  C46       1.949  1.900  0.770   12.000    Y    Y      Y    6-31g**
  C47       1.949  1.900  0.770   12.000    Y    Y      Y    6-31g**
  C48       1.949  1.900  0.770   12.000    Y    Y      Y    6-31g**
  C49       1.949  1.900  0.770   12.000    Y    Y      Y    6-31g**
  C50       1.949  1.900  0.770   12.000    Y    Y      Y    6-31g**
  C51       1.949  1.900  0.770   12.000    Y    Y      Y    6-31g**
  C52       1.949  1.900  0.770   12.000    Y    Y      Y    6-31g**
  C53       1.949  1.900  0.770   12.000    Y    Y      Y    6-31g**
  C54       1.949  1.900  0.770   12.000    Y    Y      Y    6-31g**
  C55       1.949  1.900  0.770   12.000    Y    Y      Y    6-31g**
  C56       1.949  1.900  0.770   12.000    Y    Y      Y    6-31g**
  C57       1.949  1.900  0.770   12.000    Y    Y      Y    6-31g**
  C58       1.949  1.900  0.770   12.000    Y    Y      Y    6-31g**
  C59       1.949  1.900  0.770   12.000    Y    Y      Y    6-31g**
  C60       1.949  1.900  0.770   12.000    Y    Y      Y    6-31g**
  C61       1.949  1.900  0.770   12.000    Y    Y      Y    6-31g**
  C62       1.949  1.900  0.770   12.000    Y    Y      Y    6-31g**
  C63       1.949  1.900  0.770   12.000    Y    Y      Y    6-31g**
  C64       1.949  1.900  0.770   12.000    Y    Y      Y    6-31g**
  C65       1.949  1.900  0.770   12.000    Y    Y      Y    6-31g**
  C66       1.949  1.900  0.770   12.000    Y    Y      Y    6-31g**
  C67       1.949  1.900  0.770   12.000    Y    Y      Y    6-31g**
  C68       1.949  1.900  0.770   12.000    Y    Y      Y    6-31g**
  C69       1.949  1.900  0.770   12.000    Y    Y      Y    6-31g**
  C70       1.949  1.900  0.770   12.000    Y    Y      Y    6-31g**
  N71       1.831  1.600  0.750   14.003    Y    Y      Y    6-31g**
  S72       2.070  1.900  1.020   31.972    Y    Y      Y    6-31g**
  O73       1.702  1.600  0.730   15.995    Y    Y      Y    6-31g**
  O74       1.702  1.600  0.730   15.995    Y    Y      Y    6-31g**
  C75       1.949  1.900  0.770   12.000    Y    Y      Y    6-31g**
  C76       1.949  1.900  0.770   12.000    Y    Y      Y    6-31g**
  C77       1.949  1.900  0.770   12.000    Y    Y      Y    6-31g**
  C78       1.949  1.900  0.770   12.000    Y    Y      Y    6-31g**
  C79       1.949  1.900  0.770   12.000    Y    Y      Y    6-31g**
  N80       1.831  1.600  0.750   14.003    Y    Y      Y    6-31g**
  N81       1.831  1.600  0.750   14.003    Y    Y      Y    6-31g**
  C82       1.949  1.900  0.770   12.000    Y    Y      Y    6-31g**
  C83       1.949  1.900  0.770   12.000    Y    Y      Y    6-31g**
  C84       1.949  1.900  0.770   12.000    Y    Y      Y    6-31g**
  C85       1.949  1.900  0.770   12.000    Y    Y      Y    6-31g**
  H86       1.597  1.150  0.320    1.008    Y    Y      Y    6-31g**
  H87       1.597  1.150  0.320    1.008    Y    Y      Y    6-31g**
  H88       1.597  1.150  0.320    1.008    Y    Y      Y    6-31g**
  H89       1.597  1.150  0.320    1.008    Y    Y      Y    6-31g**
  H90       1.597  1.150  0.320    1.008    Y    Y      Y    6-31g**
  H91       1.597  1.150  0.320    1.008    Y    Y      Y    6-31g**
  H92       1.597  1.150  0.320    1.008    Y    Y      Y    6-31g**
  H93       1.597  1.150  0.320    1.008    Y    Y      Y    6-31g**
  H94       1.597  1.150  0.320    1.008    Y    Y      Y    6-31g**
  H95       1.597  1.150  0.320    1.008    Y    Y      Y    6-31g**
  H96       1.597  1.150  0.320    1.008    Y    Y      Y    6-31g**
  H97       1.597  1.150  0.320    1.008    Y    Y      Y    6-31g**
  H98       1.597  1.150  0.320    1.008    Y    Y      Y    6-31g**
  H99       1.597  1.150  0.320    1.008    Y    Y      Y    6-31g**
  H100      1.597  1.150  0.320    1.008    Y    Y      Y    6-31g**
  H101      1.597  1.150  0.320    1.008    Y    Y      Y    6-31g**
  H102      1.597  1.150  0.320    1.008    Y    Y      Y    6-31g**
  H103      1.597  1.150  0.320    1.008    Y    Y      Y    6-31g**
  H104      1.597  1.150  0.320    1.008    Y    Y      Y    6-31g**
  H105      1.597  1.150  0.320    1.008    Y    Y      Y    6-31g**
  H106      1.597  1.150  0.320    1.008    Y    Y      Y    6-31g**
  H107      1.597  1.150  0.320    1.008    Y    Y      Y    6-31g**
  H108      1.597  1.150  0.320    1.008    Y    Y      Y    6-31g**
  H109      1.597  1.150  0.320    1.008    Y    Y      Y    6-31g**
  H110      1.597  1.150  0.320    1.008    Y    Y      Y    6-31g**
  H111      1.597  1.150  0.320    1.008    Y    Y      Y    6-31g**
  H112      1.597  1.150  0.320    1.008    Y    Y      Y    6-31g**
  H113      1.597  1.150  0.320    1.008    Y    Y      Y    6-31g**
  H114      1.597  1.150  0.320    1.008    Y    Y      Y    6-31g**
  H115      1.597  1.150  0.320    1.008    Y    Y      Y    6-31g**
  H116      1.597  1.150  0.320    1.008    Y    Y      Y    6-31g**
  H117      1.597  1.150  0.320    1.008    Y    Y      Y    6-31g**
  H118      1.597  1.150  0.320    1.008    Y    Y      Y    6-31g**
  H119      1.597  1.150  0.320    1.008    Y    Y      Y    6-31g**
  H120      1.597  1.150  0.320    1.008    Y    Y      Y    6-31g**
  H121      1.597  1.150  0.320    1.008    Y    Y      Y    6-31g**
  H122      1.597  1.150  0.320    1.008    Y    Y      Y    6-31g**
  H123      1.597  1.150  0.320    1.008    Y    Y      Y    6-31g**
  H124      1.597  1.150  0.320    1.008    Y    Y      Y    6-31g**
  H125      1.597  1.150  0.320    1.008    Y    Y      Y    6-31g**
  H126      1.597  1.150  0.320    1.008    Y    Y      Y    6-31g**
  H127      1.597  1.150  0.320    1.008    Y    Y      Y    6-31g**
  H128      1.597  1.150  0.320    1.008    Y    Y      Y    6-31g**
  H129      1.597  1.150  0.320    1.008    Y    Y      Y    6-31g**
  H130      1.597  1.150  0.320    1.008    Y    Y      Y    6-31g**
  H131      1.597  1.150  0.320    1.008    Y    Y      Y    6-31g**
  H132      1.597  1.150  0.320    1.008    Y    Y      Y    6-31g**
  H133      1.597  1.150  0.320    1.008    Y    Y      Y    6-31g**
  H134      1.597  1.150  0.320    1.008    Y    Y      Y    6-31g**
  H135      1.597  1.150  0.320    1.008    Y    Y      Y    6-31g**
  H136      1.597  1.150  0.320    1.008    Y    Y      Y    6-31g**
  H137      1.597  1.150  0.320    1.008    Y    Y      Y    6-31g**
  H138      1.597  1.150  0.320    1.008    Y    Y      Y    6-31g**
  H139      1.597  1.150  0.320    1.008    Y    Y      Y    6-31g**
  H140      1.597  1.150  0.320    1.008    Y    Y      Y    6-31g**
  H141      1.597  1.150  0.320    1.008    Y    Y      Y    6-31g**
  
  Peak memory usage:    766 Mb
  
  end of program pre
   
 Time(pre)  user:        1.0  user+sys:        1.0  wallclock:        1.4
  
  start of program onee
  
  smallest eigenvalue of S:    2.236E-04
  number of canonical orbitals.....         1563
  Peak memory usage:    893 Mb
  
  end of program onee
   
 Time(onee)  user:       15.5  user+sys:       15.5  wallclock:       22.0
  
  start of program hfig
  
  initial wavefunction generated automatically from atomic wavefunctions
 
  Irreducible     Total no   No of occupied orbitals 
  representation  orbitals   Shell_1  Shell_2    ...
  No Symm         1563        308
  ------------------------
  Orbital occupation/shell    1.000
 
  Peak memory usage:    826 Mb
  
  end of program hfig
   
 Time(hfig)  user:       29.3  user+sys:       29.3  wallclock:       56.9
  
  start of program probe
  
  Peak memory usage:    820 Mb
  
  end of program probe
   
 Time(probe)  user:       22.7  user+sys:       22.7  wallclock:       47.8
  
  start of program grid
  
   grid     grid set  grid #  grid sym
  ------    --------  ------  --------
  coarse        0        0        1
  medium        2        1        1
  fine          0        0        1
  ultrafine     4        2        1
  charge       -1        3        1
  gradient      4        2        1
  density       0        0        1
  DFT-fine    -13        4        1
  DFT-med.    -13        4        1
  DFT-grad    -13        4        1
  DFT-der2      0        0        1
  DFT-cphf      0        0        1
  LMP2-enrg     4        2        1
  LMP2-grad     2        1        1
  DFT-cphf2     0        0        1
  PBF-dens      0        0        1
  plotting      0        0        1
  Rel-grad    -17        0        1
  
  number of gridpoints: 
     atom        C1       C2       C3       C4       C5       C6       C7
  grid # 1       97      100       94      101      100       96       93
  grid # 2      338      361      337      366      357      335      337
  grid # 3       35       26       41       44       17       46       28
  grid # 4    48124    48124    48124    48124    48124    48124    48124
   
  number of gridpoints: 
     atom        C8       C9      C10      C11      O12     Si13      C14
  grid # 1       94       97      100      100      112      473      101
  grid # 2      337      355      354      359      439      473      355
  grid # 3       49       16       11       12       48       12       10
  grid # 4    48124    48124    48124    48124    47716    38542    48124
   
  number of gridpoints: 
     atom       C15      C16      C17      C18      C19      C20     Si21
  grid # 1       97      101       96       92       96      100      469
  grid # 2      354      363      334      331      337      359      469
  grid # 3       18       22        9       16       25        8        8
  grid # 4    48124    48124    48124    48124    48124    48124    38542
   
  number of gridpoints: 
     atom       O22      C23      C24      P25      O26      O27      C28
  grid # 1      112       93       93      443      116      109       99
  grid # 2      435      334      334      443      457      402      357
  grid # 3       52       18       25        6       43       32        7
  grid # 4    47716    48124    48124    38640    47716    47716    48124
   
  number of gridpoints: 
     atom       C29      C30      C31      C32      C33      C34      C35
  grid # 1       99      100      101      101      101       92       94
  grid # 2      361      357      357      361      359      332      334
  grid # 3       11        8       16       20       21       13       16
  grid # 4    48124    48124    48124    48124    48124    48124    48124
   
  number of gridpoints: 
     atom       C36      C37      C38      C39      C40      C41      C42
  grid # 1       93       94       92       94       92       97       93
  grid # 2      337      336      335      332      333      337      338
  grid # 3       30       20       21       12       10       28       35
  grid # 4    48124    48124    48124    48124    48124    48124    48124
   
  number of gridpoints: 
     atom       C43      C44      C45      C46      C47      C48      C49
  grid # 1       95       93       96       93       94       93       94
  grid # 2      335      333      336      333      331      332      336
  grid # 3       28       31       22       22       27       21       46
  grid # 4    48124    48124    48124    48124    48124    48124    48124
   
  number of gridpoints: 
     atom       C50      C51      C52      C53      C54      C55      C56
  grid # 1       94       94       93       93       92       93       93
  grid # 2      335      335      334      331      331      333      333
  grid # 3       48       37       33       28       19       25       28
  grid # 4    48124    48124    48124    48124    48124    48124    48124
   
  number of gridpoints: 
     atom       C57      C58      C59      C60      C61      C62      C63
  grid # 1       93       94       94       94       93       93       93
  grid # 2      333      336      336      337      335      334      335
  grid # 3       30       44       47       43       35       33       33
  grid # 4    48124    48124    48124    48124    48124    48124    48124
   
  number of gridpoints: 
     atom       C64      C65      C66      C67      C68      C69      C70
  grid # 1       96       96       98       96       96       96       94
  grid # 2      331      335      361      333      327      332      329
  grid # 3       37       31       39       28       26       36       25
  grid # 4    48124    48124    48124    48124    48124    48124    48124
   
  number of gridpoints: 
     atom       N71      S72      O73      O74      C75      C76      C77
  grid # 1      107      452      123      121       98       96       96
  grid # 2      395      452      498      486      357      329      332
  grid # 3       27       18      267      181       31       30       35
  grid # 4    47928    48492    47716    47716    48124    48124    48124
   
  number of gridpoints: 
     atom       C78      C79      N80      N81      C82      C83      C84
  grid # 1       96       96      111       97       93       93       93
  grid # 2      331      337      412      324      319      330      330
  grid # 3       34       30       65        7       11       19       23
  grid # 4    48124    48124    47928    47928    48124    48124    48124
   
  number of gridpoints: 
     atom       C85      H86      H87      H88      H89      H90      H91
  grid # 1       93      112      118      116      109      118      114
  grid # 2      324      434      451      446      424      453      430
  grid # 3       16      226      417      359      176      425      221
  grid # 4    48124    48426    48426    48426    48426    48426    48426
   
  number of gridpoints: 
     atom       H92      H93      H94      H95      H96      H97      H98
  grid # 1      113      117      117      117      101      109      112
  grid # 2      428      442      448      449      401      428      438
  grid # 3      210      339      392      403       83      181      260
  grid # 4    48426    48426    48426    48426    48426    48426    48426
   
  number of gridpoints: 
     atom       H99     H100     H101     H102     H103     H104     H105
  grid # 1      111      112      107      112      112      107      111
  grid # 2      435      433      416      438      429      417      431
  grid # 3      231      241       75      264      222      103      226
  grid # 4    48426    48426    48426    48426    48426    48426    48426
   
  number of gridpoints: 
     atom      H106     H107     H108     H109     H110     H111     H112
  grid # 1      110      110      107      113      117      117      118
  grid # 2      425      430      419      439      445      449      452
  grid # 3      191      201      125      265      334      368      419
  grid # 4    48426    48426    48426    48426    48426    48426    48426
   
  number of gridpoints: 
     atom      H113     H114     H115     H116     H117     H118     H119
  grid # 1      118      118      114      115      117      117      116
  grid # 2      453      452      443      444      447      447      444
  grid # 3      424      420      294      319      371      343      322
  grid # 4    48426    48426    48426    48426    48426    48426    48426
   
  number of gridpoints: 
     atom      H120     H121     H122     H123     H124     H125     H126
  grid # 1      111      118      118      118      117      114      109
  grid # 2      433      452      453      453      449      441      428
  grid # 3      229      417      425      421      375      297      186
  grid # 4    48426    48426    48426    48426    48426    48426    48426
   
  number of gridpoints: 
     atom      H127     H128     H129     H130     H131     H132     H133
  grid # 1      117      111      108      107      117      108      109
  grid # 2      448      429      420      413      447      422      425
  grid # 3      381      239      114      102      384      205      154
  grid # 4    48426    48426    48426    48426    48426    48426    48426
   
  number of gridpoints: 
     atom      H134     H135     H136     H137     H138     H139     H140
  grid # 1      115      112      116      103      109      117      118
  grid # 2      441      433      445      404      428      459      459
  grid # 3      297      220      350       77      153      447      467
  grid # 4    48426    48426    48426    48426    48426    48426    48426
   
  number of gridpoints: 
     atom      H141    total
  grid # 1      110    16052
  grid # 2      435    54616
  grid # 3      227    18258
  grid # 4    48426  6771080
   
  Peak memory usage:    793 Mb
  
  end of program grid
   
 Time(grid)  user:     1081.9  user+sys:     1081.9  wallclock:     4378.9
  
  start of program rwr
  
  Peak memory usage:    802 Mb
  
  end of program rwr
   
 Time(rwr)  user:       60.3  user+sys:       60.3  wallclock:      270.7
  
  start of program scf
  
 number of electrons..........        616
 number of alpha electrons....        308
 number of beta electrons.....        308
 number of orbitals, total....       1563
 number of doubly-occ'd orbs..        308
 number of open shell orbs....          0
 number of occupied orbitals..        308
 number of virtual orbitals...       1255
 number of hamiltonians.......          1
 number of shells.............          1
 SCF type: DFT=M06-2X
 Energy computed with NOPS off.
  
       i  u  d  i  g                   
       t  p  i  c  r                                 RMS    maximum
       e  d  i  u  i                       energy  density   DIIS  
       r  t  s  t  d       total energy    change  change    error 
  
etot    1  N  N  1  U   -4700.11643276009           2.3E-03  1.0E-01
etot    2  N  Y  1  U   -4706.61999132794  6.5E+00  2.2E-03  1.1E-01
etot    3  N  Y  1  U   -4706.15802741214 -4.6E-01  1.7E-03  1.4E-01
etot    4  N  Y  1  U   -4709.89863096612  3.7E+00  4.2E-04  2.2E-02
etot    5  N  Y  1  U   -4710.01980956805  1.2E-01  1.9E-04  7.5E-03
etot    6  N  Y  1  U   -4710.06214968633  4.2E-02  6.2E-05  2.6E-03
etot    7  N  Y  1  U   -4710.06732807750  5.2E-03  1.9E-05  7.9E-04
etot    8  N  Y  1  U   -4710.06781908434  4.9E-04  7.5E-06  2.6E-04
etot    9  N  Y  1  U   -4710.06787098880  5.2E-05  3.0E-06  1.8E-04
etot   10  N  N  1  U   -4710.06788549602  1.5E-05  0.0E+00  0.0E+00
  
  
 Energy components, in hartrees:
   (A)  Nuclear repulsion............   17435.81559468988
   (E)  Total one-electron terms.....  -41206.09569832550
   (F)    Electron-nuclear...........  -45881.43900554266
   (H)    Kinetic....................    4675.34330721714
   (I)  Total two-electron terms.....   19060.21221813960
   (J)    Coulomb....................   19633.54115309291
   (K)    Exchange+Correlation.......    -573.32893495331
   (L)  Electronic energy............  -22145.88348018590  (E+I)
   (M)  -V/T.........................       2.00742717187  (-(A+F+I)/H)
   (N)  Total energy.................   -4710.06788549602  (A+L)
   (O)  Gas phase energy.............   -4710.06788549602
  
 SCFE: SCF energy: DFT(m06-2x)     -4710.06788549602 hartrees   iterations:  10
  
 
 HOMO energy:    -0.23785
 LUMO energy:    -0.05134
 
  Orbital energies (hartrees): 
   -90.15785   -78.22862   -67.01587   -67.00697   -19.70224   -19.69829
   -19.66791   -19.64676   -19.64150   -19.61564   -14.80965   -14.78993
   -14.77137   -10.64171   -10.63543   -10.63215   -10.62833   -10.60669
   -10.58795   -10.58417   -10.58274   -10.58156   -10.57988   -10.57976
   -10.57841   -10.57824   -10.57666   -10.57532   -10.57181   -10.57029
   -10.56989   -10.56977   -10.56970   -10.56853   -10.56845   -10.56711
   -10.56597   -10.56591   -10.56161   -10.56108   -10.56031   -10.55915
   -10.55827   -10.55679   -10.55442   -10.55427   -10.55406   -10.55383
   -10.55279   -10.55278   -10.55136   -10.55080   -10.55038   -10.54985
   -10.54923   -10.54890   -10.54819   -10.54784   -10.54749   -10.54733
   -10.54708   -10.54675   -10.54626   -10.54528   -10.54445   -10.54314
   -10.54265   -10.54255   -10.54246   -10.54214   -10.54146   -10.54113
   -10.54023   -10.53933   -10.53877   -10.53869   -10.53826   -10.53626
   -10.53616   -10.53323   -10.53133   -10.52795   -10.52359   -10.50831
   -10.50631    -8.46982    -7.00765    -6.39171    -6.39096    -6.39025
    -5.54687    -5.53840    -5.12588    -5.12509    -5.12409    -3.85679
    -3.85628    -3.85611    -3.84824    -3.84785    -3.84760    -1.24907
    -1.23531    -1.19683    -1.15982    -1.12401    -1.09436    -1.08119
    -1.05576    -1.05132    -0.99398    -0.97810    -0.97205    -0.94902
    -0.94547    -0.94380    -0.93797    -0.93791    -0.93376    -0.93157
    -0.92293    -0.92225    -0.90146    -0.89364    -0.87324    -0.86471
    -0.85532    -0.85286    -0.84484    -0.84267    -0.84082    -0.83876
    -0.83715    -0.83641    -0.83540    -0.83259    -0.83203    -0.83118
    -0.82812    -0.82595    -0.82369    -0.82269    -0.81794    -0.81283
    -0.79689    -0.78500    -0.76204    -0.74384    -0.73632    -0.72468
    -0.71739    -0.70834    -0.70479    -0.70018    -0.69291    -0.69057
    -0.68419    -0.67964    -0.67838    -0.67666    -0.67569    -0.67033
    -0.66986    -0.66663    -0.66472    -0.66199    -0.66105    -0.65849
    -0.65568    -0.65382    -0.64321    -0.63739    -0.63589    -0.62794
    -0.61609    -0.61425    -0.61154    -0.60488    -0.60352    -0.59904
    -0.59578    -0.58945    -0.58835    -0.58398    -0.57841    -0.57701
    -0.57619    -0.57250    -0.56837    -0.56557    -0.56039    -0.55553
    -0.55123    -0.54960    -0.54280    -0.53831    -0.53574    -0.52990
    -0.52755    -0.52535    -0.52125    -0.52096    -0.51793    -0.51686
    -0.51616    -0.51273    -0.51060    -0.50939    -0.50804    -0.50565
    -0.50500    -0.50325    -0.50174    -0.50044    -0.49965    -0.49870
    -0.49703    -0.49561    -0.49422    -0.49242    -0.49108    -0.49039
    -0.48736    -0.48265    -0.48211    -0.48117    -0.47950    -0.47830
    -0.47800    -0.47620    -0.47121    -0.47079    -0.46693    -0.45998
    -0.45887    -0.45620    -0.45512    -0.45351    -0.45217    -0.45132
    -0.44899    -0.44505    -0.44342    -0.44236    -0.44074    -0.43335
    -0.43000    -0.42814    -0.42734    -0.42658    -0.42492    -0.42353
    -0.42281    -0.42174    -0.41914    -0.41547    -0.41093    -0.41017
    -0.40886    -0.40740    -0.40673    -0.39987    -0.39768    -0.39674
    -0.39642    -0.39467    -0.39244    -0.39170    -0.39095    -0.38798
    -0.38712    -0.38616    -0.38274    -0.38009    -0.37597    -0.37368
    -0.36694    -0.36469    -0.36293    -0.35866    -0.34912    -0.34756
    -0.34584    -0.34114    -0.34018    -0.33939    -0.33559    -0.33301
    -0.31954    -0.31277    -0.30669    -0.30443    -0.30256    -0.30225
    -0.30149    -0.29995    -0.29788    -0.29753    -0.29535    -0.29374
    -0.28959    -0.28829    -0.28588    -0.28516    -0.28277    -0.27098
    -0.26707    -0.23785    -0.05134    -0.03547    -0.01554    -0.00941
    -0.00211     0.00262     0.01061     0.01239     0.01624     0.02088
 
  Peak memory usage:   1020 Mb
  
  end of program scf
   
 Time(scf)  user:    24420.4  user+sys:    24420.4  wallclock:   105112.3
  
  start of program ch
  
  gridpoints used for charge fit        15685
    out of a possible maximum of        18258
  
   Electrostatic potential fitting constrained to reproduce
     total charge:                yes
     dipole moment:               no 
     traceless quadrupole moment: no 
     traceless octapole moment:   no 
  
  Atomic charges from electrostatic potential: 
   
 Atom       C1           C2           C3           C4           C5      
 Charge   -0.13488      0.01015     -0.16207      0.17922      0.05654
   
 Atom       C6           C7           C8           C9           C10     
 Charge   -0.21058     -0.32242     -0.11479     -0.00751     -0.22974
   
 Atom       C11          O12          Si13         C14          C15     
 Charge    0.08312     -0.25212      0.05575      0.18771      0.24748
   
 Atom       C16          C17          C18          C19          C20     
 Charge    0.21154     -0.20772     -0.40321     -0.26174      0.00196
   
 Atom       Si21         O22          C23          C24          P25     
 Charge    0.01927     -0.27849     -0.14129     -0.10368      0.95752
   
 Atom       O26          O27          C28          C29          C30     
 Charge   -0.46784     -0.54747      0.17593      0.01049     -0.04023
   
 Atom       C31          C32          C33          C34          C35     
 Charge    0.06684     -0.05039      0.11706     -0.12457     -0.30280
   
 Atom       C36          C37          C38          C39          C40     
 Charge   -0.08169     -0.10980     -0.02508      0.00659     -0.03027
   
 Atom       C41          C42          C43          C44          C45     
 Charge   -0.20530     -0.01062     -0.10280     -0.23213     -0.16952
   
 Atom       C46          C47          C48          C49          C50     
 Charge   -0.13998     -0.16685     -0.04813     -0.16336     -0.12277
   
 Atom       C51          C52          C53          C54          C55     
 Charge   -0.14512     -0.21344     -0.05718     -0.22874     -0.14722
   
 Atom       C56          C57          C58          C59          C60     
 Charge   -0.20613     -0.00689     -0.20249     -0.09686     -0.14526
   
 Atom       C61          C62          C63          C64          C65     
 Charge   -0.09070     -0.12722     -0.11067     -0.11113     -0.16361
   
 Atom       C66          C67          C68          C69          C70     
 Charge    0.03872     -0.12451      0.08556     -0.17654      0.25061
   
 Atom       N71          S72          O73          O74          C75     
 Charge   -0.35921      0.76863     -0.45091     -0.46351      0.49475
   
 Atom       C76          C77          C78          C79          N80     
 Charge   -0.43645      0.19577     -0.38315      0.37577     -0.56947
   
 Atom       N81          C82          C83          C84          C85     
 Charge    0.49202     -0.28972     -0.22753     -0.24922     -0.40614
   
 Atom       H86          H87          H88          H89          H90     
 Charge    0.12738      0.14362      0.14472      0.15396      0.13552
   
 Atom       H91          H92          H93          H94          H95     
 Charge    0.13938      0.20896      0.16142      0.14231      0.13085
   
 Atom       H96          H97          H98          H99          H100    
 Charge    0.35636      0.08331      0.15646      0.08339      0.10560
   
 Atom       H101         H102         H103         H104         H105    
 Charge    0.04838      0.07488      0.08789      0.12495      0.06406
   
 Atom       H106         H107         H108         H109         H110    
 Charge    0.11374      0.14715      0.10247      0.12483      0.12688
   
 Atom       H111         H112         H113         H114         H115    
 Charge    0.12162      0.13781      0.12966      0.13098      0.13747
   
 Atom       H116         H117         H118         H119         H120    
 Charge    0.13980      0.13653      0.12180      0.15113      0.07273
   
 Atom       H121         H122         H123         H124         H125    
 Charge    0.14461      0.12495      0.12753      0.11854      0.11590
   
 Atom       H126         H127         H128         H129         H130    
 Charge    0.10906      0.13745      0.12874      0.04073      0.02444
   
 Atom       H131         H132         H133         H134         H135    
 Charge    0.14814      0.09081      0.18270      0.09677      0.14449
   
 Atom       H136         H137         H138         H139         H140    
 Charge    0.05614     -0.02019      0.16958      0.15861      0.17773
   
 Atom       H141    
 Charge    0.22716
  
  sum of atomic charges:     0.000000
   
 RMS Error   9.90E-04 hartrees
 
  Peak memory usage:    810 Mb
  
  end of program ch
   
 Time(ch)  user:       16.9  user+sys:       16.9  wallclock:       74.9
  
  start of program post
  
  Writing input files for PBF
  Peak memory usage:    757 Mb
  
  end of program post
   
 Time(post)  user:        0.7  user+sys:        0.7  wallclock:        7.5

  start of program pbf

Pbf Version 4.10

Molecular surface area:      774.21915   [A2]
Reaction field energy:       -16.20498   [kT]
  Peak memory usage: 718 Mb

  end of program pbf

 Time(pbf)  user:        6.0  user+sys:        6.0  wallclock:       25.4
  
  start of program solv
  
   number of surface charges from PBF   12506
   sum of surface charges     -0.00018
   
  nuclear repulsion energy.......   17435.815594690 hartrees
  Peak memory usage:    887 Mb
  
  end of program solv
   
 Time(solv)  user:       33.6  user+sys:       33.6  wallclock:      141.2
  
  start of program scf
  
 Energy computed with NOPS off.
  
       i  u  d  i  g                   
       t  p  i  c  r                                 RMS    maximum
       e  d  i  u  i                       energy  density   DIIS  
       r  t  s  t  d       total energy    change  change    error 
  
etot    1  N  N  1  U   -4710.10178024532           5.3E-05  9.2E-04
etot    2  N  Y  1  U   -4710.10252490851  7.4E-04  1.6E-05  7.5E-04
etot    3  N  Y  1  U   -4710.10272949528  2.0E-04  5.3E-06  3.2E-04
etot    4  N  N  1  U   -4710.10276929716  4.0E-05  0.0E+00  0.0E+00
  
  
 Energy components, in hartrees:
   (A)  Total zero-electron terms....   17437.44516787312
   (B)    Nuclear-nuclear............   17435.81559468988
   (C)    Nuclear-solvent............       1.62957318324
   (E)  Total one-electron terms.....  -41208.77509390468
   (F)    Electron-nuclear...........  -45882.48567305905
   (G)    Electron-solvent...........      -1.66544990638
   (H)    Kinetic....................    4675.37602906075
   (I)  Total two-electron terms.....   19061.22715673441
   (J)    Coulomb....................   19634.57301857902
   (K)    Exchange+Correlation.......    -573.34586184461
   (L)  Electronic energy............  -22147.54793717027  (E+I)
   (N)  Total quantum mech. energy...   -4710.10276929716  (A+L)
   (O)  Gas phase energy.............   -4710.06788549602
   (P)  Solution phase energy........   -4710.08483093559  (Q+R+S)
   (Q)    Total solute energy........   -4710.06689257402  (N-C-G)
   (R)    Total solvent energy.......      -0.01793836157  (C/2+G/2)
   (S)    Solute cavity energy.......       0.00000000000
   (U)  Reorganization energy........       0.00099292201  (Q-O)
   (V)  Solvation energy.............      -0.01694543956  (P-O)
  
 SCFE:  Solution phase energy: DFT(m06-2x)      -4710.08483093559 hartrees
        SCF iterations:   4
  
 
 HOMO energy:    -0.24313
 LUMO energy:    -0.05225
 
  Orbital energies (hartrees): 
   -90.16444   -78.22952   -67.01558   -67.00893   -19.70239   -19.69941
   -19.66872   -19.65415   -19.65025   -19.61694   -14.81198   -14.79006
   -14.77618   -10.64322   -10.63441   -10.63285   -10.63064   -10.60625
   -10.58842   -10.58458   -10.58286   -10.58091   -10.57999   -10.57987
   -10.57875   -10.57859   -10.57455   -10.57431   -10.57013   -10.56914
   -10.56881   -10.56869   -10.56635   -10.56623   -10.56545   -10.56525
   -10.56447   -10.56313   -10.56089   -10.55971   -10.55890   -10.55835
   -10.55756   -10.55683   -10.55438   -10.55419   -10.55391   -10.55385
   -10.55264   -10.55252   -10.55189   -10.55147   -10.55119   -10.55069
   -10.54950   -10.54912   -10.54907   -10.54892   -10.54878   -10.54873
   -10.54856   -10.54755   -10.54746   -10.54724   -10.54710   -10.54688
   -10.54556   -10.54533   -10.54473   -10.54434   -10.54418   -10.54270
   -10.54237   -10.54197   -10.54085   -10.53902   -10.53894   -10.53884
   -10.53826   -10.53545   -10.53249   -10.53056   -10.52623   -10.51320
   -10.51145    -8.47639    -7.00854    -6.39824    -6.39760    -6.39678
    -5.54659    -5.54037    -5.12676    -5.12599    -5.12499    -3.85650
    -3.85601    -3.85585    -3.85020    -3.84984    -3.84958    -1.24956
    -1.24292    -1.19733    -1.16064    -1.13237    -1.09564    -1.08236
    -1.05836    -1.05607    -0.99290    -0.97723    -0.97203    -0.94936
    -0.94584    -0.94573    -0.94023    -0.93955    -0.93467    -0.93204
    -0.92343    -0.92125    -0.90031    -0.89526    -0.87334    -0.86324
    -0.85491    -0.85190    -0.84534    -0.84308    -0.84198    -0.84051
    -0.83836    -0.83705    -0.83627    -0.83346    -0.83277    -0.83277
    -0.82895    -0.82707    -0.82615    -0.82504    -0.82053    -0.81157
    -0.79944    -0.78987    -0.76183    -0.74450    -0.73677    -0.72365
    -0.71586    -0.70859    -0.70465    -0.69954    -0.69347    -0.68975
    -0.68385    -0.68040    -0.67861    -0.67774    -0.67547    -0.67157
    -0.67087    -0.66679    -0.66605    -0.66296    -0.66239    -0.65860
    -0.65629    -0.65598    -0.64464    -0.63985    -0.63659    -0.62918
    -0.62096    -0.61390    -0.61008    -0.60722    -0.60467    -0.60157
    -0.59913    -0.58872    -0.58678    -0.58347    -0.57908    -0.57860
    -0.57780    -0.57451    -0.56838    -0.56688    -0.56045    -0.55556
    -0.55173    -0.54858    -0.54253    -0.53908    -0.53802    -0.53260
    -0.52772    -0.52561    -0.52072    -0.52054    -0.51771    -0.51713
    -0.51659    -0.51373    -0.51054    -0.50825    -0.50596    -0.50543
    -0.50500    -0.50314    -0.50225    -0.50093    -0.49987    -0.49921
    -0.49785    -0.49668    -0.49626    -0.49250    -0.49172    -0.49069
    -0.48682    -0.48354    -0.48309    -0.48106    -0.48078    -0.47977
    -0.47835    -0.47658    -0.47284    -0.47201    -0.46621    -0.46287
    -0.46018    -0.45734    -0.45689    -0.45526    -0.45288    -0.45139
    -0.45011    -0.44663    -0.44638    -0.44450    -0.44072    -0.43419
    -0.43139    -0.43020    -0.42942    -0.42799    -0.42613    -0.42496
    -0.42318    -0.42192    -0.42069    -0.41689    -0.41368    -0.41192
    -0.40964    -0.40906    -0.40573    -0.40321    -0.40169    -0.39934
    -0.39699    -0.39564    -0.39295    -0.39264    -0.39041    -0.38937
    -0.38712    -0.38582    -0.38432    -0.38343    -0.38189    -0.37506
    -0.37023    -0.36440    -0.36265    -0.35870    -0.35005    -0.34752
    -0.34627    -0.34247    -0.34230    -0.34059    -0.33677    -0.33428
    -0.31965    -0.31331    -0.30685    -0.30519    -0.30500    -0.30357
    -0.30288    -0.30046    -0.29858    -0.29816    -0.29703    -0.29561
    -0.29189    -0.29009    -0.28846    -0.28776    -0.28287    -0.27644
    -0.26582    -0.24313    -0.05225    -0.03383    -0.01680    -0.00939
    -0.00196     0.00300     0.01056     0.01235     0.01521     0.02072
 
  Peak memory usage:   1020 Mb
  
  end of program scf
   
 Time(scf)  user:     7487.6  user+sys:     7487.6  wallclock:    32005.4
  
  start of program sole
  
    SCRF                   solvation energy
  iteration          Hartrees            kcal/mol
     0               0.0000000            0.0000
     1              -0.0169454          -10.6334
  
  solvation energy not yet converged... 
  
  Peak memory usage:    812 Mb
  
  end of program sole
   
 Time(sole)  user:        0.2  user+sys:        0.2  wallclock:        0.7
  
  start of program ch
  
  gridpoints used for charge fit        15685
    out of a possible maximum of        15685
  
   Electrostatic potential fitting constrained to reproduce
     total charge:                yes
     dipole moment:               no 
     traceless quadrupole moment: no 
     traceless octapole moment:   no 
  
  Atomic charges from electrostatic potential: 
   
 Atom       C1           C2           C3           C4           C5      
 Charge   -0.13684      0.00756     -0.16997      0.18412      0.06079
   
 Atom       C6           C7           C8           C9           C10     
 Charge   -0.22065     -0.33902     -0.11977     -0.02059     -0.23243
   
 Atom       C11          O12          Si13         C14          C15     
 Charge    0.10007     -0.24462      0.03835      0.19788      0.22964
   
 Atom       C16          C17          C18          C19          C20     
 Charge    0.20574     -0.21135     -0.40852     -0.26722      0.02135
   
 Atom       Si21         O22          C23          C24          P25     
 Charge   -0.00794     -0.26117     -0.14587     -0.10871      0.93872
   
 Atom       O26          O27          C28          C29          C30     
 Charge   -0.45593     -0.53998      0.18493      0.01277     -0.03763
   
 Atom       C31          C32          C33          C34          C35     
 Charge    0.07708     -0.05352      0.13014     -0.12562     -0.31338
   
 Atom       C36          C37          C38          C39          C40     
 Charge   -0.08324     -0.11179     -0.02599      0.01147     -0.02933
   
 Atom       C41          C42          C43          C44          C45     
 Charge   -0.21757     -0.00663     -0.10543     -0.25162     -0.18720
   
 Atom       C46          C47          C48          C49          C50     
 Charge   -0.14643     -0.17907     -0.04924     -0.17338     -0.12896
   
 Atom       C51          C52          C53          C54          C55     
 Charge   -0.15245     -0.22285     -0.06015     -0.23954     -0.14532
   
 Atom       C56          C57          C58          C59          C60     
 Charge   -0.22260     -0.00757     -0.21423     -0.10219     -0.15218
   
 Atom       C61          C62          C63          C64          C65     
 Charge   -0.08839     -0.13759     -0.11150     -0.10690     -0.17419
   
 Atom       C66          C67          C68          C69          C70     
 Charge    0.05353     -0.13596      0.08180     -0.18664      0.24146
   
 Atom       N71          S72          O73          O74          C75     
 Charge   -0.34969      0.77874     -0.47606     -0.47984      0.50776
   
 Atom       C76          C77          C78          C79          N80     
 Charge   -0.45355      0.20440     -0.38356      0.38152     -0.59344
   
 Atom       N81          C82          C83          C84          C85     
 Charge    0.52225     -0.29604     -0.23975     -0.26355     -0.41762
   
 Atom       H86          H87          H88          H89          H90     
 Charge    0.12960      0.15230      0.15245      0.15964      0.14397
   
 Atom       H91          H92          H93          H94          H95     
 Charge    0.14307      0.21529      0.16888      0.15050      0.13902
   
 Atom       H96          H97          H98          H99          H100    
 Charge    0.35327      0.08372      0.16101      0.08315      0.10839
   
 Atom       H101         H102         H103         H104         H105    
 Charge    0.04688      0.07823      0.08934      0.12740      0.06288
   
 Atom       H106         H107         H108         H109         H110    
 Charge    0.11728      0.15583      0.11450      0.13204      0.13264
   
 Atom       H111         H112         H113         H114         H115    
 Charge    0.12507      0.14616      0.13758      0.13894      0.14117
   
 Atom       H116         H117         H118         H119         H120    
 Charge    0.14257      0.14462      0.12770      0.16178      0.07321
   
 Atom       H121         H122         H123         H124         H125    
 Charge    0.15318      0.13268      0.13521      0.12440      0.12136
   
 Atom       H126         H127         H128         H129         H130    
 Charge    0.11043      0.14524      0.13857      0.03742      0.02500
   
 Atom       H131         H132         H133         H134         H135    
 Charge    0.15738      0.10146      0.19185      0.10206      0.15009
   
 Atom       H136         H137         H138         H139         H140    
 Charge    0.06365     -0.03169      0.17759      0.16451      0.18388
   
 Atom       H141    
 Charge    0.23356
  
  sum of atomic charges:     0.000000
   
 RMS Error   1.00E-03 hartrees
 
  Peak memory usage:    811 Mb
  
  end of program ch
   
 Time(ch)  user:       17.2  user+sys:       17.2  wallclock:       76.6
  
  start of program post
  
  Writing input files for PBF
  Peak memory usage:    757 Mb
  
  end of program post
   
 Time(post)  user:        0.8  user+sys:        0.8  wallclock:        4.0

  start of program pbf

Pbf Version 4.10

Molecular surface area:      774.21915   [A2]
Reaction field energy:       -18.52190   [kT]
  Peak memory usage: 718 Mb

  end of program pbf

 Time(pbf)  user:        6.0  user+sys:        6.2  wallclock:       24.2
  
  start of program solv
  
   number of surface charges from PBF   12506
   sum of surface charges     -0.00019
   
  nuclear repulsion energy.......   17435.815594690 hartrees
  Peak memory usage:    887 Mb
  
  end of program solv
   
 Time(solv)  user:       33.5  user+sys:       33.5  wallclock:      145.5
  
  start of program scf
  
 Energy computed with NOPS off.
  
       i  u  d  i  g                   
       t  p  i  c  r                                 RMS    maximum
       e  d  i  u  i                       energy  density   DIIS  
       r  t  s  t  d       total energy    change  change    error 
  
etot    1  N  N  1  U   -4710.10521671477           6.6E-06  8.5E-05
etot    2  N  N  1  U   -4710.10522477046  8.1E-06  0.0E+00  0.0E+00
  
  
 Energy components, in hartrees:
   (A)  Total zero-electron terms....   17437.62457620673
   (B)    Nuclear-nuclear............   17435.81559468988
   (C)    Nuclear-solvent............       1.80898151685
   (E)  Total one-electron terms.....  -41209.14707280677
   (F)    Electron-nuclear...........  -45882.71528837429
   (G)    Electron-solvent...........      -1.84757371853
   (H)    Kinetic....................    4675.41578928605
   (I)  Total two-electron terms.....   19061.41727182957
   (J)    Coulomb....................   19634.76980522967
   (K)    Exchange+Correlation.......    -573.35253340010
   (L)  Electronic energy............  -22147.72980097719  (E+I)
   (N)  Total quantum mech. energy...   -4710.10522477046  (A+L)
   (O)  Gas phase energy.............   -4710.06788549602
   (P)  Solution phase energy........   -4710.08592866962  (Q+R+S)
   (Q)    Total solute energy........   -4710.06663256879  (N-C-G)
   (R)    Total solvent energy.......      -0.01929610084  (C/2+G/2)
   (S)    Solute cavity energy.......       0.00000000000
   (U)  Reorganization energy........       0.00125292724  (Q-O)
   (V)  Solvation energy.............      -0.01804317360  (P-O)
  
 SCFE:  Solution phase energy: DFT(m06-2x)      -4710.08592866962 hartrees
        SCF iterations:   2
  
 
 HOMO energy:    -0.29908
 LUMO energy:    -0.05253
 
  Orbital energies (hartrees): 
   -79.00360   -78.47597   -50.34798   -41.54921   -36.17482   -29.86582
   -20.60244   -17.56637   -17.37884   -17.13681   -15.79194   -14.94277
   -14.17051   -13.61976   -13.39760   -12.52241   -12.49291   -12.43337
   -12.40930   -11.96591   -11.71010   -11.69427   -11.38539   -11.26717
   -11.15682   -11.04859   -11.01391   -11.00834   -10.97272   -10.96836
   -10.94059   -10.93519   -10.82762   -10.80954   -10.67052   -10.64998
   -10.62145   -10.59878   -10.59418   -10.58947   -10.58426   -10.57117
   -10.56173   -10.55902   -10.55764   -10.55741   -10.55619   -10.55076
   -10.54782   -10.54710   -10.54439   -10.54161   -10.54138   -10.54045
   -10.53576   -10.53482   -10.52609   -10.52504   -10.52305   -10.52081
   -10.50807   -10.50491   -10.50365   -10.50312   -10.50113   -10.49724
   -10.47444   -10.46638   -10.46565   -10.44547   -10.43580   -10.41110
   -10.39367   -10.33308   -10.31597   -10.24056   -10.22805   -10.15340
   -10.04884   -10.01092    -9.99243    -9.92718    -9.73204    -9.69291
    -9.62278    -9.35388    -8.65083    -7.99279    -7.15361    -6.63743
    -6.59379    -6.46911    -6.46903    -6.45193    -6.12350    -5.53993
    -5.43955    -4.89593    -3.92996    -3.91123    -3.89762    -1.22577
    -1.18284    -1.17645    -1.10905    -1.08794    -1.07289    -1.00876
    -0.97555    -0.96525    -0.94718    -0.94514    -0.94473    -0.93775
    -0.92984    -0.92492    -0.92156    -0.90855    -0.90627    -0.90339
    -0.88889    -0.88373    -0.87453    -0.85534    -0.82608    -0.82311
    -0.81479    -0.81377    -0.80807    -0.80049    -0.78841    -0.78291
    -0.77827    -0.77696    -0.76772    -0.76571    -0.75805    -0.75798
    -0.75762    -0.75751    -0.75599    -0.74329    -0.73833    -0.73829
    -0.73703    -0.71376    -0.71296    -0.71105    -0.70130    -0.69546
    -0.68745    -0.68202    -0.67198    -0.67046    -0.66862    -0.66399
    -0.66397    -0.65977    -0.64471    -0.64204    -0.63621    -0.63550
    -0.63524    -0.63485    -0.62680    -0.62552    -0.62221    -0.61967
    -0.61821    -0.61775    -0.61587    -0.61549    -0.60641    -0.60306
    -0.60119    -0.60044    -0.59630    -0.58753    -0.58516    -0.58512
    -0.57948    -0.57787    -0.57636    -0.57627    -0.57427    -0.56737
    -0.56678    -0.56524    -0.56164    -0.55837    -0.55677    -0.55513
    -0.55497    -0.55277    -0.54554    -0.54545    -0.54538    -0.54348
    -0.54276    -0.54136    -0.53714    -0.53619    -0.53432    -0.53257
    -0.52625    -0.52462    -0.52287    -0.52185    -0.52141    -0.52049
    -0.51968    -0.51597    -0.51192    -0.51088    -0.50775    -0.50557
    -0.50085    -0.50058    -0.50021    -0.49998    -0.49926    -0.49779
    -0.49696    -0.49408    -0.49053    -0.49000    -0.48991    -0.48977
    -0.48886    -0.48865    -0.48794    -0.48541    -0.48476    -0.48448
    -0.48219    -0.48203    -0.48120    -0.48105    -0.47880    -0.47714
    -0.47522    -0.47517    -0.47503    -0.47441    -0.47399    -0.47355
    -0.47233    -0.46957    -0.46949    -0.46834    -0.46736    -0.46716
    -0.46536    -0.46395    -0.46316    -0.46293    -0.46229    -0.46192
    -0.46129    -0.45938    -0.45892    -0.45876    -0.45661    -0.45541
    -0.45520    -0.45475    -0.45440    -0.45302    -0.45009    -0.44839
    -0.44552    -0.44172    -0.43877    -0.43525    -0.43500    -0.43485
    -0.43385    -0.43244    -0.43217    -0.42891    -0.42609    -0.42307
    -0.41988    -0.41422    -0.41387    -0.41305    -0.41016    -0.40911
    -0.40751    -0.39949    -0.39736    -0.39642    -0.39263    -0.38874
    -0.38798    -0.37973    -0.36956    -0.36007    -0.35686    -0.35670
    -0.35536    -0.35172    -0.32967    -0.32724    -0.31678    -0.31329
    -0.30656    -0.29908    -0.05253    -0.03352    -0.01716    -0.00892
    -0.00200     0.00309     0.01074     0.01224     0.01501     0.02071
 
  Peak memory usage:   1020 Mb
  
  end of program scf
   
 Time(scf)  user:     2542.9  user+sys:     2542.9  wallclock:    10826.1
  
  start of program sole
  
    SCRF                   solvation energy
  iteration          Hartrees            kcal/mol
     0               0.0000000            0.0000
     1              -0.0169454          -10.6334
     2              -0.0180432          -11.3223
  
  solvation energy not yet converged... 
  
  Peak memory usage:    812 Mb
  
  end of program sole
   
 Time(sole)  user:        0.2  user+sys:        0.2  wallclock:        0.6
  
  start of program ch
  
  gridpoints used for charge fit        15685
    out of a possible maximum of        15685
  
   Electrostatic potential fitting constrained to reproduce
     total charge:                yes
     dipole moment:               no 
     traceless quadrupole moment: no 
     traceless octapole moment:   no 
  
  Atomic charges from electrostatic potential: 
   
 Atom       C1           C2           C3           C4           C5      
 Charge   -0.13782      0.00662     -0.16979      0.18488      0.06240
   
 Atom       C6           C7           C8           C9           C10     
 Charge   -0.22165     -0.34013     -0.11953     -0.02456     -0.23449
   
 Atom       C11          O12          Si13         C14          C15     
 Charge    0.10128     -0.24305      0.03643      0.19816      0.22567
   
 Atom       C16          C17          C18          C19          C20     
 Charge    0.20202     -0.21342     -0.40588     -0.26554      0.02730
   
 Atom       Si21         O22          C23          C24          P25     
 Charge   -0.01089     -0.25680     -0.14480     -0.10955      0.93111
   
 Atom       O26          O27          C28          C29          C30     
 Charge   -0.45268     -0.53629      0.18589      0.01318     -0.03907
   
 Atom       C31          C32          C33          C34          C35     
 Charge    0.08077     -0.05409      0.13225     -0.12592     -0.31347
   
 Atom       C36          C37          C38          C39          C40     
 Charge   -0.08422     -0.11252     -0.02447      0.01176     -0.03145
   
 Atom       C41          C42          C43          C44          C45     
 Charge   -0.21813     -0.00645     -0.10505     -0.25517     -0.18832
   
 Atom       C46          C47          C48          C49          C50     
 Charge   -0.14743     -0.18034     -0.04964     -0.17430     -0.12940
   
 Atom       C51          C52          C53          C54          C55     
 Charge   -0.15268     -0.22348     -0.06085     -0.24073     -0.14421
   
 Atom       C56          C57          C58          C59          C60     
 Charge   -0.22643     -0.00800     -0.21584     -0.10311     -0.15360
   
 Atom       C61          C62          C63          C64          C65     
 Charge   -0.08790     -0.14007     -0.11278     -0.10532     -0.17621
   
 Atom       C66          C67          C68          C69          C70     
 Charge    0.05430     -0.13610      0.08103     -0.18763      0.23911
   
 Atom       N71          S72          O73          O74          C75     
 Charge   -0.34699      0.77640     -0.47766     -0.48230      0.50923
   
 Atom       C76          C77          C78          C79          N80     
 Charge   -0.45760      0.20417     -0.38333      0.38185     -0.59292
   
 Atom       N81          C82          C83          C84          C85     
 Charge    0.52497     -0.29708     -0.24070     -0.26490     -0.41846
   
 Atom       H86          H87          H88          H89          H90     
 Charge    0.13007      0.15323      0.15311      0.16055      0.14482
   
 Atom       H91          H92          H93          H94          H95     
 Charge    0.14376      0.21577      0.16920      0.15144      0.14008
   
 Atom       H96          H97          H98          H99          H100    
 Charge    0.35310      0.08387      0.16096      0.08307      0.10877
   
 Atom       H101         H102         H103         H104         H105    
 Charge    0.04662      0.07903      0.08920      0.12759      0.06256
   
 Atom       H106         H107         H108         H109         H110    
 Charge    0.11760      0.15697      0.11672      0.13322      0.13324
   
 Atom       H111         H112         H113         H114         H115    
 Charge    0.12530      0.14706      0.13858      0.13989      0.14119
   
 Atom       H116         H117         H118         H119         H120    
 Charge    0.14257      0.14579      0.12856      0.16340      0.07326
   
 Atom       H121         H122         H123         H124         H125    
 Charge    0.15417      0.13373      0.13628      0.12518      0.12219
   
 Atom       H126         H127         H128         H129         H130    
 Charge    0.11070      0.14623      0.14000      0.03626      0.02538
   
 Atom       H131         H132         H133         H134         H135    
 Charge    0.15830      0.10293      0.19329      0.10279      0.15129
   
 Atom       H136         H137         H138         H139         H140    
 Charge    0.06438     -0.03307      0.17885      0.16508      0.18427
   
 Atom       H141    
 Charge    0.23403
  
  sum of atomic charges:     0.000000
   
 RMS Error   1.00E-03 hartrees
 
  Peak memory usage:    811 Mb
  
  end of program ch
   
 Time(ch)  user:       17.0  user+sys:       17.0  wallclock:       63.8
  
  start of program post
  
  Writing input files for PBF
  Peak memory usage:    757 Mb
  
  end of program post
   
 Time(post)  user:        0.9  user+sys:        0.9  wallclock:        4.5

  start of program pbf

Pbf Version 4.10

Molecular surface area:      774.21915   [A2]
Reaction field energy:       -18.82390   [kT]
  Peak memory usage: 718 Mb

  end of program pbf

 Time(pbf)  user:        6.2  user+sys:        6.3  wallclock:       24.0
  
  start of program solv
  
   number of surface charges from PBF   12506
   sum of surface charges     -0.00019
   
  nuclear repulsion energy.......   17435.815594690 hartrees
  Peak memory usage:    887 Mb
  
  end of program solv
   
 Time(solv)  user:       33.4  user+sys:       33.4  wallclock:      134.9
  
  start of program scf
  
 Energy computed with NOPS off.
  
       i  u  d  i  g                   
       t  p  i  c  r                                 RMS    maximum
       e  d  i  u  i                       energy  density   DIIS  
       r  t  s  t  d       total energy    change  change    error 
  
etot    1  N  N  1  U   -4710.10553191625           5.2E-06  1.0E-04
etot    2  N  N  1  U   -4710.10551859000 -1.3E-05  0.0E+00  0.0E+00
  
  
 Energy components, in hartrees:
   (A)  Total zero-electron terms....   17437.65272065620
   (B)    Nuclear-nuclear............   17435.81559468988
   (C)    Nuclear-solvent............       1.83712596632
   (E)  Total one-electron terms.....  -41209.12020475979
   (F)    Electron-nuclear...........  -45882.62332987816
   (G)    Electron-solvent...........      -1.87601875979
   (H)    Kinetic....................    4675.37914387815
   (I)  Total two-electron terms.....   19061.36196551359
   (J)    Coulomb....................   19634.70929906141
   (K)    Exchange+Correlation.......    -573.34733354783
   (L)  Electronic energy............  -22147.75823924620  (E+I)
   (N)  Total quantum mech. energy...   -4710.10551859000  (A+L)
   (O)  Gas phase energy.............   -4710.06788549602
   (P)  Solution phase energy........   -4710.08607219327  (Q+R+S)
   (Q)    Total solute energy........   -4710.06662579653  (N-C-G)
   (R)    Total solvent energy.......      -0.01944639673  (C/2+G/2)
   (S)    Solute cavity energy.......       0.00000000000
   (U)  Reorganization energy........       0.00125969949  (Q-O)
   (V)  Solvation energy.............      -0.01818669724  (P-O)
  
 SCFE:  Solution phase energy: DFT(m06-2x)      -4710.08607219327 hartrees
        SCF iterations:   2
  
 
 HOMO energy:    -0.24376
 LUMO energy:    -0.05238
 
  Orbital energies (hartrees): 
   -90.16518   -78.22977   -67.01471   -67.00942   -19.70212   -19.70035
   -19.66841   -19.65546   -19.65304   -19.61725   -14.81213   -14.78920
   -14.77674   -10.64331   -10.63415   -10.63366   -10.63116   -10.60553
   -10.58890   -10.58561   -10.58349   -10.58179   -10.58023   -10.57960
   -10.57941   -10.57860   -10.57416   -10.57371   -10.57007   -10.56899
   -10.56850   -10.56769   -10.56614   -10.56532   -10.56496   -10.56485
   -10.56374   -10.56204   -10.56076   -10.55931   -10.55856   -10.55821
   -10.55682   -10.55677   -10.55423   -10.55396   -10.55384   -10.55382
   -10.55250   -10.55245   -10.55244   -10.55136   -10.55123   -10.55079
   -10.54981   -10.54965   -10.54938   -10.54882   -10.54878   -10.54818
   -10.54808   -10.54806   -10.54750   -10.54749   -10.54741   -10.54736
   -10.54588   -10.54584   -10.54560   -10.54474   -10.54422   -10.54312
   -10.54298   -10.54239   -10.54134   -10.53938   -10.53932   -10.53831
   -10.53734   -10.53596   -10.53199   -10.53142   -10.52666   -10.51386
   -10.51232    -8.47719    -7.00878    -6.39903    -6.39841    -6.39756
    -5.54576    -5.54087    -5.12700    -5.12623    -5.12524    -3.85566
    -3.85517    -3.85501    -3.85070    -3.85034    -3.85008    -1.24974
    -1.24421    -1.19765    -1.16068    -1.13388    -1.09590    -1.08221
    -1.05869    -1.05665    -0.99288    -0.97705    -0.97193    -0.94915
    -0.94587    -0.94580    -0.94084    -0.93969    -0.93510    -0.93180
    -0.92362    -0.92089    -0.90016    -0.89545    -0.87330    -0.86302
    -0.85477    -0.85156    -0.84545    -0.84337    -0.84221    -0.84034
    -0.83814    -0.83727    -0.83606    -0.83394    -0.83293    -0.83274
    -0.82889    -0.82714    -0.82656    -0.82557    -0.82102    -0.81134
    -0.79981    -0.79049    -0.76184    -0.74457    -0.73685    -0.72340
    -0.71561    -0.70861    -0.70464    -0.69943    -0.69353    -0.68955
    -0.68365    -0.68060    -0.67860    -0.67781    -0.67524    -0.67205
    -0.67086    -0.66681    -0.66626    -0.66306    -0.66267    -0.65866
    -0.65665    -0.65616    -0.64494    -0.64020    -0.63659    -0.62940
    -0.62161    -0.61372    -0.60987    -0.60779    -0.60492    -0.60196
    -0.59946    -0.58859    -0.58652    -0.58324    -0.57918    -0.57890
    -0.57801    -0.57498    -0.56865    -0.56682    -0.56060    -0.55556
    -0.55188    -0.54827    -0.54262    -0.53939    -0.53828    -0.53297
    -0.52774    -0.52568    -0.52062    -0.52033    -0.51768    -0.51727
    -0.51655    -0.51412    -0.51064    -0.50799    -0.50558    -0.50527
    -0.50496    -0.50298    -0.50243    -0.50085    -0.49981    -0.49927
    -0.49803    -0.49672    -0.49669    -0.49291    -0.49171    -0.49052
    -0.48658    -0.48368    -0.48331    -0.48123    -0.48076    -0.48015
    -0.47837    -0.47662    -0.47320    -0.47208    -0.46606    -0.46340
    -0.46025    -0.45774    -0.45700    -0.45529    -0.45292    -0.45141
    -0.45020    -0.44723    -0.44660    -0.44497    -0.44033    -0.43441
    -0.43199    -0.43016    -0.42963    -0.42799    -0.42634    -0.42498
    -0.42315    -0.42191    -0.42084    -0.41716    -0.41423    -0.41226
    -0.40982    -0.40898    -0.40552    -0.40449    -0.40225    -0.39957
    -0.39676    -0.39535    -0.39301    -0.39282    -0.39039    -0.38970
    -0.38721    -0.38572    -0.38464    -0.38450    -0.38220    -0.37531
    -0.37063    -0.36429    -0.36244    -0.35868    -0.35027    -0.34728
    -0.34599    -0.34265    -0.34255    -0.34085    -0.33691    -0.33449
    -0.31953    -0.31328    -0.30659    -0.30526    -0.30504    -0.30385
    -0.30277    -0.30052    -0.29885    -0.29799    -0.29715    -0.29575
    -0.29227    -0.29031    -0.28887    -0.28819    -0.28281    -0.27710
    -0.26557    -0.24376    -0.05238    -0.03349    -0.01695    -0.00940
    -0.00192     0.00317     0.01063     0.01257     0.01532     0.02056
 
  Peak memory usage:   1020 Mb
  
  end of program scf
   
 Time(scf)  user:     2524.1  user+sys:     2524.1  wallclock:    10888.2
  
  start of program sole
  
    SCRF                   solvation energy
  iteration          Hartrees            kcal/mol
     0               0.0000000            0.0000
     1              -0.0169454          -10.6334
     2              -0.0180432          -11.3223
     3              -0.0181867          -11.4123
  
  stopping: solvation energy converged
  
  iterations:   3    sfinal:    -11.4123 kcal/mol
  
  Peak memory usage:    812 Mb
  
  end of program sole
   
 Time(sole)  user:        0.2  user+sys:        0.2  wallclock:        1.3
  
  start of program post
  
  Writing input files for PBF
  Peak memory usage:    757 Mb
  
  end of program post
   
 Time(post)  user:        0.8  user+sys:        0.8  wallclock:        7.0

 Total cpu seconds     user:   38331.668   user+sys:   38331.668
  
 Total elapsed time:    164370 seconds

Job Toru-SiPh3-Type-I-E-2-chkp4-unrestrained-IRC-max-disp-SPE completed on tethys at Thu Mar 16 14:08:34 2017
