Command:    jaguar run jexec.py -jobname Toru-SiPh3-Type-I-E-2-chkp4-unrestrained-IRC-max-disp-SPE -nsubjobs 1 Toru-SiPh3-Type-I-E-2-chkp4-unrestrained-IRC-max-disp-SPE.in
[running at reduced cpu priority]
Release:    2017-1
Exec:       /usr/local/shared/schrodinger/current/jaguar-v9.5/bin/Linux-x86_64
Host:       tethys
JobId:      tethys-0-58c81a4d
JobDir:     /scratch/ab2144/Toru-SiPh3-Type-I-E-2-chkp4-unrestrained-IRC-max-disp-SPE
Date:       Tue Mar 14 16:29:04 2017

Contents of /scratch/ab2144/Toru-SiPh3-Type-I-E-2-chkp4-unrestrained-IRC-max-disp-SPE:
/scratch/ab2144/Toru-SiPh3-Type-I-E-2-chkp4-unrestrained-IRC-max-disp-SPE/tethys-0-58c81a4d.nodes
/scratch/ab2144/Toru-SiPh3-Type-I-E-2-chkp4-unrestrained-IRC-max-disp-SPE/tethys-0-58c81a4d.recover
/scratch/ab2144/Toru-SiPh3-Type-I-E-2-chkp4-unrestrained-IRC-max-disp-SPE/tethys-0-58c81a4d
/scratch/ab2144/Toru-SiPh3-Type-I-E-2-chkp4-unrestrained-IRC-max-disp-SPE/Toru-SiPh3-Type-I-E-2-chkp4-unrestrained-IRC-max-disp-SPE.recover
/scratch/ab2144/Toru-SiPh3-Type-I-E-2-chkp4-unrestrained-IRC-max-disp-SPE/Toru-SiPh3-Type-I-E-2-chkp4-unrestrained-IRC-max-disp-SPE.mae
/scratch/ab2144/Toru-SiPh3-Type-I-E-2-chkp4-unrestrained-IRC-max-disp-SPE/Toru-SiPh3-Type-I-E-2-chkp4-unrestrained-IRC-max-disp-SPE.in
/scratch/ab2144/Toru-SiPh3-Type-I-E-2-chkp4-unrestrained-IRC-max-disp-SPE/Toru-SiPh3-Type-I-E-2-chkp4-unrestrained-IRC-max-disp-SPE.log

Executing subprocess:
/usr/local/shared/schrodinger/current/jaguar-v9.5/bin/Linux-x86_64/jexec Toru-SiPh3-Type-I-E-2-chkp4-unrestrained-IRC-max-disp-SPE.in -cwd -out /scratch/ab2144/Toru-SiPh3-Type-I-E-2-chkp4-unrestrained-IRC-max-disp-SPE

[running at reduced cpu priority]
[running at reduced cpu priority]
Job Toru-SiPh3-Type-I-E-2-chkp4-unrestrained-IRC-max-disp-SPE started on tethys at Tue Mar 14 16:29:04 2017
jobid: tethys-0-58c81a4d 
Jaguar version 9.5, release  11
Molecular Point Group: C1      
Point Group used: C1
pre (input checking) done.
onee (1-electron integrals) done.
hfig (HF initial guess) done.
probe (project orbitals) done.
grid (grid generation) done.
rwr (Q operators) done.
scf type: DFT=M06-2X
  
       i  u  d  i  g
       t  p  i  c  r                                 RMS    maximum
       e  d  i  u  i                       energy  density   DIIS  
       r  t  s  t  d       total energy    change  change    error 
  
etot    1  N  N  1  U   -4700.11643276009           2.3E-03  1.0E-01
etot    2  N  Y  1  U   -4706.61999132794  6.5E+00  2.2E-03  1.1E-01
etot    3  N  Y  1  U   -4706.15802741214 -4.6E-01  1.7E-03  1.4E-01
etot    4  N  Y  1  U   -4709.89863096612  3.7E+00  4.2E-04  2.2E-02
etot    5  N  Y  1  U   -4710.01980956805  1.2E-01  1.9E-04  7.5E-03
etot    6  N  Y  1  U   -4710.06214968633  4.2E-02  6.2E-05  2.6E-03
etot    7  N  Y  1  U   -4710.06732807750  5.2E-03  1.9E-05  7.9E-04
etot    8  N  Y  1  U   -4710.06781908434  4.9E-04  7.5E-06  2.6E-04
etot    9  N  Y  1  U   -4710.06787098880  5.2E-05  3.0E-06  1.8E-04
etot   10  N  N  1  U   -4710.06788549602  1.5E-05  0.0E+00  0.0E+00
scf (DFT) done.
--------gas phase calculation complete----------------------
ch (properties) done.
post (output conversion) done.
pbf (Poisson-Boltzmann solver) done.
solv (solvation checking) done.
  
       i  u  d  i  g
       t  p  i  c  r                                 RMS    maximum
       e  d  i  u  i                       energy  density   DIIS  
       r  t  s  t  d       total energy    change  change    error 
  
etot    1  N  N  1  U   -4710.10178024532           5.3E-05  9.2E-04
etot    2  N  Y  1  U   -4710.10252490851  7.4E-04  1.6E-05  7.5E-04
etot    3  N  Y  1  U   -4710.10272949528  2.0E-04  5.3E-06  3.2E-04
etot    4  N  N  1  U   -4710.10276929716  4.0E-05  0.0E+00  0.0E+00
scf (DFT) done.
sole (solvation energy) done.
----------solvation iteration  1 complete------------------
ch (properties) done.
post (output conversion) done.
pbf (Poisson-Boltzmann solver) done.
solv (solvation checking) done.
  
       i  u  d  i  g
       t  p  i  c  r                                 RMS    maximum
       e  d  i  u  i                       energy  density   DIIS  
       r  t  s  t  d       total energy    change  change    error 
  
etot    1  N  N  1  U   -4710.10521671477           6.6E-06  8.5E-05
etot    2  N  N  1  U   -4710.10522477046  8.1E-06  0.0E+00  0.0E+00
scf (DFT) done.
sole (solvation energy) done.
----------solvation iteration  2 complete------------------
ch (properties) done.
post (output conversion) done.
pbf (Poisson-Boltzmann solver) done.
solv (solvation checking) done.
  
       i  u  d  i  g
       t  p  i  c  r                                 RMS    maximum
       e  d  i  u  i                       energy  density   DIIS  
       r  t  s  t  d       total energy    change  change    error 
  
etot    1  N  N  1  U   -4710.10553191625           5.2E-06  1.0E-04
etot    2  N  N  1  U   -4710.10551859000 -1.3E-05  0.0E+00  0.0E+00
scf (DFT) done.
sole (solvation energy) done.
----final solvation iteration  3 complete------------------
post (output conversion) done.
Job Toru-SiPh3-Type-I-E-2-chkp4-unrestrained-IRC-max-disp-SPE completed on tethys at Thu Mar 16 14:08:34 2017
Timer (jaguar_backend.py) : 164370.79 secs (1 day, 21 hrs, 39 mins, 30 secs)
Finished:   Thu Mar 16 14:08:34 2017
