 Entering Gaussian System, Link 0=/usr/local/shared/gaussian/em64t/09-D01/g09/g09
 Initial command:
 /usr/local/shared/gaussian/em64t/09-D01/g09/l1.exe "/scratch/ab2144/ModelCatalyst-10Sulfonyl-1-TS-scan-unrestrained-207/Gau-3532.inp" -scrdir="/scratch/ab2144/ModelCatalyst-10Sulfonyl-1-TS-scan-unrestrained-207/"
 Entering Link 1 = /usr/local/shared/gaussian/em64t/09-D01/g09/l1.exe PID=      3533.
  
 Copyright (c) 1988,1990,1992,1993,1995,1998,2003,2009,2013,
            Gaussian, Inc.  All Rights Reserved.
  
 This is part of the Gaussian(R) 09 program.  It is based on
 the Gaussian(R) 03 system (copyright 2003, Gaussian, Inc.),
 the Gaussian(R) 98 system (copyright 1998, Gaussian, Inc.),
 the Gaussian(R) 94 system (copyright 1995, Gaussian, Inc.),
 the Gaussian 92(TM) system (copyright 1992, Gaussian, Inc.),
 the Gaussian 90(TM) system (copyright 1990, Gaussian, Inc.),
 the Gaussian 88(TM) system (copyright 1988, Gaussian, Inc.),
 the Gaussian 86(TM) system (copyright 1986, Carnegie Mellon
 University), and the Gaussian 82(TM) system (copyright 1983,
 Carnegie Mellon University). Gaussian is a federally registered
 trademark of Gaussian, Inc.
  
 This software contains proprietary and confidential information,
 including trade secrets, belonging to Gaussian, Inc.
  
 This software is provided under written license and may be
 used, copied, transmitted, or stored only in accord with that
 written license.
  
 The following legend is applicable only to US Government
 contracts under FAR:
  
                    RESTRICTED RIGHTS LEGEND
  
 Use, reproduction and disclosure by the US Government is
 subject to restrictions as set forth in subparagraphs (a)
 and (c) of the Commercial Computer Software - Restricted
 Rights clause in FAR 52.227-19.
  
 Gaussian, Inc.
 340 Quinnipiac St., Bldg. 40, Wallingford CT 06492
  
  
 ---------------------------------------------------------------
 Warning -- This program may not be used in any manner that
 competes with the business of Gaussian, Inc. or will provide
 assistance to any competitor of Gaussian, Inc.  The licensee
 of this program is prohibited from giving any competitor of
 Gaussian, Inc. access to this program.  By using this program,
 the user acknowledges that Gaussian, Inc. is engaged in the
 business of creating and licensing software in the field of
 computational chemistry and represents and warrants to the
 licensee that it is not a competitor of Gaussian, Inc. and that
 it will not use this program in any manner prohibited above.
 ---------------------------------------------------------------
  

 Cite this work as:
 Gaussian 09, Revision D.01,
 M. J. Frisch, G. W. Trucks, H. B. Schlegel, G. E. Scuseria, 
 M. A. Robb, J. R. Cheeseman, G. Scalmani, V. Barone, B. Mennucci, 
 G. A. Petersson, H. Nakatsuji, M. Caricato, X. Li, H. P. Hratchian, 
 A. F. Izmaylov, J. Bloino, G. Zheng, J. L. Sonnenberg, M. Hada, 
 M. Ehara, K. Toyota, R. Fukuda, J. Hasegawa, M. Ishida, T. Nakajima, 
 Y. Honda, O. Kitao, H. Nakai, T. Vreven, J. A. Montgomery, Jr., 
 J. E. Peralta, F. Ogliaro, M. Bearpark, J. J. Heyd, E. Brothers, 
 K. N. Kudin, V. N. Staroverov, T. Keith, R. Kobayashi, J. Normand, 
 K. Raghavachari, A. Rendell, J. C. Burant, S. S. Iyengar, J. Tomasi, 
 M. Cossi, N. Rega, J. M. Millam, M. Klene, J. E. Knox, J. B. Cross, 
 V. Bakken, C. Adamo, J. Jaramillo, R. Gomperts, R. E. Stratmann, 
 O. Yazyev, A. J. Austin, R. Cammi, C. Pomelli, J. W. Ochterski, 
 R. L. Martin, K. Morokuma, V. G. Zakrzewski, G. A. Voth, 
 P. Salvador, J. J. Dannenberg, S. Dapprich, A. D. Daniels, 
 O. Farkas, J. B. Foresman, J. V. Ortiz, J. Cioslowski, 
 and D. J. Fox, Gaussian, Inc., Wallingford CT, 2013.
 
 ******************************************
 Gaussian 09:  EM64L-G09RevD.01 24-Apr-2013
                 7-Mar-2017 
 ******************************************
 %nprocshared=4
 Will use up to    4 processors via shared memory.
 %mem=812MB
 %chk=ModelCatalyst-10Sulfonyl-1-TS-scan-unrestrained-207.chk
 ----------------------------------------------------------------------
 # opt=(calcfc,ts,noeigen) freq=noraman b3lyp/6-31g(d,p) geom=connectiv
 ity
 ----------------------------------------------------------------------
 1/5=1,10=4,11=1,14=-1,18=20,26=3,38=1,57=2/1,3;
 2/9=110,12=2,17=6,18=5,40=1/2;
 3/5=1,6=6,7=101,11=2,16=1,25=1,30=1,71=2,74=-5,140=1/1,2,3;
 4//1;
 5/5=2,38=5/2;
 8/6=4,10=90,11=11/1;
 11/6=1,8=1,9=11,15=111,16=1/1,2,10;
 10/6=1,13=1/2;
 6/7=2,8=2,9=2,10=2,28=1/1;
 7/10=1,18=20,25=1/1,2,3,16;
 1/5=1,10=4,11=1,14=-1,18=20,26=3/3(2);
 2/9=110/2;
 99//99;
 2/9=110/2;
 3/5=1,6=6,7=101,11=2,16=1,25=1,30=1,71=1,74=-5/1,2,3;
 4/5=5,16=3,69=1/1;
 5/5=2,38=5/2;
 7//1,2,3,16;
 1/5=1,11=1,14=-1,18=20,26=3/3(-5);
 2/9=110/2;
 6/7=2,8=2,9=2,10=2,19=2,28=1/1;
 99/9=1/99;
 -------------------
 Title Card Required
 -------------------
 Symbolic Z-matrix:
 Charge =  0 Multiplicity = 1
 C                     3.40158  -3.0144   -1.03487 
 C                     4.63515  -2.64354  -0.63155 
 C                     4.82107  -1.18441  -0.64913 
 C                     4.43253  -0.66825  -1.82973 
 H                     5.3071   -3.39164  -0.21975 
 H                     3.05376  -4.04349  -1.03103 
 H                     4.59299  -1.19644  -2.7678 
 H                     4.6916   -0.61599   0.26739 
 O                     2.38332  -2.18638  -1.4979 
 P                     2.06628  -0.56087  -1.3403 
 O                     3.3987    0.26707  -1.91193 
 O                     0.90519  -0.25959  -2.23628 
 N                     1.89228  -0.40077   0.26525 
 S                     1.52214   0.96481   0.986 
 O                     1.69065   2.19273   0.19531 
 O                     0.25883   0.82784   1.76045 
 C                     2.80659   1.05299   2.33702 
 F                     2.75994  -0.03287   3.11266 
 F                     4.03253   1.14611   1.79772 
 F                     2.58534   2.13653   3.08493 
 H                    -1.37867   0.52323   1.16116 
 C                    -2.99749  -0.65457   0.46043 
 N                    -2.351     0.5008    0.8048 
 S                    -3.06003   2.0372    0.5479 
 O                    -4.29045   1.76551  -0.20434 
 O                    -3.09862   2.76089   1.81469 
 C                     0.00147   3.93612  -2.14582 
 C                    -0.52845   2.66156  -2.3646 
 N                    -1.44798   2.11753  -1.56013 
 C                    -1.82583   2.83494  -0.50918 
 C                    -1.36611   4.103    -0.1773 
 C                    -0.42466   4.66666  -1.04068 
 H                     0.75031   4.33148  -2.82319 
 H                    -0.18826   2.044    -3.18928 
 H                    -1.71562   4.60309   0.71732 
 H                    -0.01894   5.65235  -0.837 
 C                    -1.75047  -4.34857   2.22087 
 C                    -0.78933  -3.39824   1.87558 
 C                    -1.16674  -2.19225   1.28566 
 C                    -2.52448  -1.9274    1.0408 
 C                    -3.48434  -2.89862   1.37384 
 C                    -3.10174  -4.09665   1.9681 
 H                    -1.4502   -5.28332   2.68501 
 H                     0.26235  -3.58596   2.06691 
 H                    -0.3996   -1.46786   1.03515 
 H                    -4.53535  -2.7028    1.17946 
 H                    -3.85494  -4.83089   2.23681 
 H                    -4.07317  -0.52969   0.40251 
 C                    -1.54844  -2.58823  -2.16756 
 C                    -2.87259  -3.08467  -2.18235 
 C                    -3.69679  -2.01514  -1.88238 
 C                    -2.8738   -0.88061  -1.59663 
 H                    -0.6119   -3.09707  -2.35125 
 H                    -3.15914  -4.1068   -2.3831 
 H                    -4.77582  -2.02537  -1.80296 
 H                    -3.13247   0.15398  -1.77989 
 N                    -1.56611  -1.28845  -1.87206 
 H                    -0.7062   -0.70422  -1.89048 
 
 Add virtual bond connecting atoms H58        and O12        Dist= 3.23D+00.
 Add virtual bond connecting atoms H21        and O16        Dist= 3.35D+00.

 GradGradGradGradGradGradGradGradGradGradGradGradGradGradGradGradGradGrad
 Berny optimization.
 Initialization pass.
                           ----------------------------
                           !    Initial Parameters    !
                           ! (Angstroms and Degrees)  !
 --------------------------                            --------------------------
 ! Name  Definition              Value          Derivative Info.                !
 --------------------------------------------------------------------------------
 ! R1    R(1,2)                  1.3498         calculate D2E/DX2 analytically  !
 ! R2    R(1,6)                  1.0863         calculate D2E/DX2 analytically  !
 ! R3    R(1,9)                  1.3917         calculate D2E/DX2 analytically  !
 ! R4    R(2,3)                  1.471          calculate D2E/DX2 analytically  !
 ! R5    R(2,5)                  1.0866         calculate D2E/DX2 analytically  !
 ! R6    R(3,4)                  1.3458         calculate D2E/DX2 analytically  !
 ! R7    R(3,8)                  1.0862         calculate D2E/DX2 analytically  !
 ! R8    R(4,7)                  1.0884         calculate D2E/DX2 analytically  !
 ! R9    R(4,11)                 1.3966         calculate D2E/DX2 analytically  !
 ! R10   R(9,10)                 1.6636         calculate D2E/DX2 analytically  !
 ! R11   R(10,11)                1.6696         calculate D2E/DX2 analytically  !
 ! R12   R(10,12)                1.4972         calculate D2E/DX2 analytically  !
 ! R13   R(10,13)                1.6229         calculate D2E/DX2 analytically  !
 ! R14   R(12,58)                1.707          calculate D2E/DX2 analytically  !
 ! R15   R(13,14)                1.5879         calculate D2E/DX2 analytically  !
 ! R16   R(14,15)                1.4702         calculate D2E/DX2 analytically  !
 ! R17   R(14,16)                1.4881         calculate D2E/DX2 analytically  !
 ! R18   R(14,17)                1.8662         calculate D2E/DX2 analytically  !
 ! R19   R(16,21)                1.7701         calculate D2E/DX2 analytically  !
 ! R20   R(17,18)                1.3353         calculate D2E/DX2 analytically  !
 ! R21   R(17,19)                1.3426         calculate D2E/DX2 analytically  !
 ! R22   R(17,20)                1.3351         calculate D2E/DX2 analytically  !
 ! R23   R(21,23)                1.0358         calculate D2E/DX2 analytically  !
 ! R24   R(22,23)                1.368          calculate D2E/DX2 analytically  !
 ! R25   R(22,40)                1.4767         calculate D2E/DX2 analytically  !
 ! R26   R(22,48)                1.0845         calculate D2E/DX2 analytically  !
 ! R27   R(23,24)                1.7115         calculate D2E/DX2 analytically  !
 ! R28   R(24,25)                1.4675         calculate D2E/DX2 analytically  !
 ! R29   R(24,26)                1.4595         calculate D2E/DX2 analytically  !
 ! R30   R(24,30)                1.8103         calculate D2E/DX2 analytically  !
 ! R31   R(27,28)                1.3976         calculate D2E/DX2 analytically  !
 ! R32   R(27,32)                1.3916         calculate D2E/DX2 analytically  !
 ! R33   R(27,33)                1.0844         calculate D2E/DX2 analytically  !
 ! R34   R(28,29)                1.3374         calculate D2E/DX2 analytically  !
 ! R35   R(28,34)                1.085          calculate D2E/DX2 analytically  !
 ! R36   R(29,30)                1.3274         calculate D2E/DX2 analytically  !
 ! R37   R(30,31)                1.3891         calculate D2E/DX2 analytically  !
 ! R38   R(31,32)                1.3962         calculate D2E/DX2 analytically  !
 ! R39   R(31,35)                1.0829         calculate D2E/DX2 analytically  !
 ! R40   R(32,36)                1.0852         calculate D2E/DX2 analytically  !
 ! R41   R(37,38)                1.395          calculate D2E/DX2 analytically  !
 ! R42   R(37,42)                1.3976         calculate D2E/DX2 analytically  !
 ! R43   R(37,43)                1.086          calculate D2E/DX2 analytically  !
 ! R44   R(38,39)                1.3946         calculate D2E/DX2 analytically  !
 ! R45   R(38,44)                1.0853         calculate D2E/DX2 analytically  !
 ! R46   R(39,40)                1.4048         calculate D2E/DX2 analytically  !
 ! R47   R(39,45)                1.0844         calculate D2E/DX2 analytically  !
 ! R48   R(40,41)                1.4055         calculate D2E/DX2 analytically  !
 ! R49   R(41,42)                1.391          calculate D2E/DX2 analytically  !
 ! R50   R(41,46)                1.0866         calculate D2E/DX2 analytically  !
 ! R51   R(42,47)                1.0856         calculate D2E/DX2 analytically  !
 ! R52   R(49,50)                1.4142         calculate D2E/DX2 analytically  !
 ! R53   R(49,53)                1.0816         calculate D2E/DX2 analytically  !
 ! R54   R(49,57)                1.3331         calculate D2E/DX2 analytically  !
 ! R55   R(50,51)                1.3832         calculate D2E/DX2 analytically  !
 ! R56   R(50,54)                1.0804         calculate D2E/DX2 analytically  !
 ! R57   R(51,52)                1.4304         calculate D2E/DX2 analytically  !
 ! R58   R(51,55)                1.082          calculate D2E/DX2 analytically  !
 ! R59   R(52,56)                1.0821         calculate D2E/DX2 analytically  !
 ! R60   R(52,57)                1.3972         calculate D2E/DX2 analytically  !
 ! R61   R(57,58)                1.0398         calculate D2E/DX2 analytically  !
 ! A1    A(2,1,6)              123.4946         calculate D2E/DX2 analytically  !
 ! A2    A(2,1,9)              127.2007         calculate D2E/DX2 analytically  !
 ! A3    A(6,1,9)              109.3018         calculate D2E/DX2 analytically  !
 ! A4    A(1,2,3)              112.6104         calculate D2E/DX2 analytically  !
 ! A5    A(1,2,5)              119.2896         calculate D2E/DX2 analytically  !
 ! A6    A(3,2,5)              127.5369         calculate D2E/DX2 analytically  !
 ! A7    A(2,3,4)              110.7587         calculate D2E/DX2 analytically  !
 ! A8    A(2,3,8)              119.5986         calculate D2E/DX2 analytically  !
 ! A9    A(4,3,8)              120.3361         calculate D2E/DX2 analytically  !
 ! A10   A(3,4,7)              121.8273         calculate D2E/DX2 analytically  !
 ! A11   A(3,4,11)             121.4807         calculate D2E/DX2 analytically  !
 ! A12   A(7,4,11)             112.5453         calculate D2E/DX2 analytically  !
 ! A13   A(1,9,10)             133.5712         calculate D2E/DX2 analytically  !
 ! A14   A(9,10,11)            107.4579         calculate D2E/DX2 analytically  !
 ! A15   A(9,10,12)            106.7211         calculate D2E/DX2 analytically  !
 ! A16   A(9,10,13)            102.1547         calculate D2E/DX2 analytically  !
 ! A17   A(11,10,12)           108.313          calculate D2E/DX2 analytically  !
 ! A18   A(11,10,13)           112.0466         calculate D2E/DX2 analytically  !
 ! A19   A(12,10,13)           119.2779         calculate D2E/DX2 analytically  !
 ! A20   A(4,11,10)            103.7986         calculate D2E/DX2 analytically  !
 ! A21   A(10,12,58)           123.9466         calculate D2E/DX2 analytically  !
 ! A22   A(10,13,14)           123.9804         calculate D2E/DX2 analytically  !
 ! A23   A(13,14,15)           116.5806         calculate D2E/DX2 analytically  !
 ! A24   A(13,14,16)           110.7912         calculate D2E/DX2 analytically  !
 ! A25   A(13,14,17)           102.052          calculate D2E/DX2 analytically  !
 ! A26   A(15,14,16)           117.0059         calculate D2E/DX2 analytically  !
 ! A27   A(15,14,17)           105.7235         calculate D2E/DX2 analytically  !
 ! A28   A(16,14,17)           102.2328         calculate D2E/DX2 analytically  !
 ! A29   A(14,16,21)           128.6801         calculate D2E/DX2 analytically  !
 ! A30   A(14,17,18)           110.9811         calculate D2E/DX2 analytically  !
 ! A31   A(14,17,19)           109.9352         calculate D2E/DX2 analytically  !
 ! A32   A(14,17,20)           109.2592         calculate D2E/DX2 analytically  !
 ! A33   A(18,17,19)           108.7626         calculate D2E/DX2 analytically  !
 ! A34   A(18,17,20)           109.1961         calculate D2E/DX2 analytically  !
 ! A35   A(19,17,20)           108.667          calculate D2E/DX2 analytically  !
 ! A36   A(23,22,40)           118.5323         calculate D2E/DX2 analytically  !
 ! A37   A(23,22,48)           112.6408         calculate D2E/DX2 analytically  !
 ! A38   A(40,22,48)           115.9746         calculate D2E/DX2 analytically  !
 ! A39   A(21,23,22)           123.2653         calculate D2E/DX2 analytically  !
 ! A40   A(21,23,24)           114.9028         calculate D2E/DX2 analytically  !
 ! A41   A(22,23,24)           121.6408         calculate D2E/DX2 analytically  !
 ! A42   A(23,24,25)           104.9571         calculate D2E/DX2 analytically  !
 ! A43   A(23,24,26)           109.0141         calculate D2E/DX2 analytically  !
 ! A44   A(23,24,30)           101.5839         calculate D2E/DX2 analytically  !
 ! A45   A(25,24,26)           120.9678         calculate D2E/DX2 analytically  !
 ! A46   A(25,24,30)           110.7254         calculate D2E/DX2 analytically  !
 ! A47   A(26,24,30)           107.8401         calculate D2E/DX2 analytically  !
 ! A48   A(28,27,32)           119.1416         calculate D2E/DX2 analytically  !
 ! A49   A(28,27,33)           119.7723         calculate D2E/DX2 analytically  !
 ! A50   A(32,27,33)           121.0728         calculate D2E/DX2 analytically  !
 ! A51   A(27,28,29)           122.514          calculate D2E/DX2 analytically  !
 ! A52   A(27,28,34)           121.278          calculate D2E/DX2 analytically  !
 ! A53   A(29,28,34)           116.1832         calculate D2E/DX2 analytically  !
 ! A54   A(28,29,30)           116.8795         calculate D2E/DX2 analytically  !
 ! A55   A(24,30,29)           114.723          calculate D2E/DX2 analytically  !
 ! A56   A(24,30,31)           119.2368         calculate D2E/DX2 analytically  !
 ! A57   A(29,30,31)           126.0398         calculate D2E/DX2 analytically  !
 ! A58   A(30,31,32)           116.3566         calculate D2E/DX2 analytically  !
 ! A59   A(30,31,35)           120.8083         calculate D2E/DX2 analytically  !
 ! A60   A(32,31,35)           122.824          calculate D2E/DX2 analytically  !
 ! A61   A(27,32,31)           119.0523         calculate D2E/DX2 analytically  !
 ! A62   A(27,32,36)           120.7565         calculate D2E/DX2 analytically  !
 ! A63   A(31,32,36)           120.1792         calculate D2E/DX2 analytically  !
 ! A64   A(38,37,42)           119.9057         calculate D2E/DX2 analytically  !
 ! A65   A(38,37,43)           120.1089         calculate D2E/DX2 analytically  !
 ! A66   A(42,37,43)           119.9854         calculate D2E/DX2 analytically  !
 ! A67   A(37,38,39)           120.4873         calculate D2E/DX2 analytically  !
 ! A68   A(37,38,44)           120.4081         calculate D2E/DX2 analytically  !
 ! A69   A(39,38,44)           119.1041         calculate D2E/DX2 analytically  !
 ! A70   A(38,39,40)           119.8883         calculate D2E/DX2 analytically  !
 ! A71   A(38,39,45)           118.9421         calculate D2E/DX2 analytically  !
 ! A72   A(40,39,45)           121.1651         calculate D2E/DX2 analytically  !
 ! A73   A(22,40,39)           122.7227         calculate D2E/DX2 analytically  !
 ! A74   A(22,40,41)           118.0324         calculate D2E/DX2 analytically  !
 ! A75   A(39,40,41)           119.2394         calculate D2E/DX2 analytically  !
 ! A76   A(40,41,42)           120.5663         calculate D2E/DX2 analytically  !
 ! A77   A(40,41,46)           119.5789         calculate D2E/DX2 analytically  !
 ! A78   A(42,41,46)           119.847          calculate D2E/DX2 analytically  !
 ! A79   A(37,42,41)           119.8979         calculate D2E/DX2 analytically  !
 ! A80   A(37,42,47)           120.2726         calculate D2E/DX2 analytically  !
 ! A81   A(41,42,47)           119.8291         calculate D2E/DX2 analytically  !
 ! A82   A(50,49,53)           130.079          calculate D2E/DX2 analytically  !
 ! A83   A(50,49,57)           109.4005         calculate D2E/DX2 analytically  !
 ! A84   A(53,49,57)           120.5206         calculate D2E/DX2 analytically  !
 ! A85   A(49,50,51)           106.5127         calculate D2E/DX2 analytically  !
 ! A86   A(49,50,54)           125.6191         calculate D2E/DX2 analytically  !
 ! A87   A(51,50,54)           127.8662         calculate D2E/DX2 analytically  !
 ! A88   A(50,51,52)           108.2872         calculate D2E/DX2 analytically  !
 ! A89   A(50,51,55)           127.0748         calculate D2E/DX2 analytically  !
 ! A90   A(52,51,55)           124.513          calculate D2E/DX2 analytically  !
 ! A91   A(51,52,56)           125.9424         calculate D2E/DX2 analytically  !
 ! A92   A(51,52,57)           105.5201         calculate D2E/DX2 analytically  !
 ! A93   A(56,52,57)           117.9978         calculate D2E/DX2 analytically  !
 ! A94   A(49,57,52)           109.9202         calculate D2E/DX2 analytically  !
 ! A95   A(49,57,58)           122.2058         calculate D2E/DX2 analytically  !
 ! A96   A(52,57,58)           127.8437         calculate D2E/DX2 analytically  !
 ! A97   A(12,58,57)           158.5365         calculate D2E/DX2 analytically  !
 ! A98   L(16,21,23,12,-1)     181.8338         calculate D2E/DX2 analytically  !
 ! A99   L(16,21,23,12,-2)     188.6739         calculate D2E/DX2 analytically  !
 ! D1    D(6,1,2,3)           -176.059          calculate D2E/DX2 analytically  !
 ! D2    D(6,1,2,5)             -4.0228         calculate D2E/DX2 analytically  !
 ! D3    D(9,1,2,3)              3.2605         calculate D2E/DX2 analytically  !
 ! D4    D(9,1,2,5)            175.2967         calculate D2E/DX2 analytically  !
 ! D5    D(2,1,9,10)           -20.8431         calculate D2E/DX2 analytically  !
 ! D6    D(6,1,9,10)           158.5556         calculate D2E/DX2 analytically  !
 ! D7    D(1,2,3,4)            -49.8268         calculate D2E/DX2 analytically  !
 ! D8    D(1,2,3,8)             96.9467         calculate D2E/DX2 analytically  !
 ! D9    D(5,2,3,4)            138.9383         calculate D2E/DX2 analytically  !
 ! D10   D(5,2,3,8)            -74.2882         calculate D2E/DX2 analytically  !
 ! D11   D(2,3,4,7)            -36.4175         calculate D2E/DX2 analytically  !
 ! D12   D(2,3,4,11)           118.9797         calculate D2E/DX2 analytically  !
 ! D13   D(8,3,4,7)            177.0891         calculate D2E/DX2 analytically  !
 ! D14   D(8,3,4,11)           -27.5136         calculate D2E/DX2 analytically  !
 ! D15   D(3,4,11,10)          -62.3229         calculate D2E/DX2 analytically  !
 ! D16   D(7,4,11,10)           95.1577         calculate D2E/DX2 analytically  !
 ! D17   D(1,9,10,11)           56.4743         calculate D2E/DX2 analytically  !
 ! D18   D(1,9,10,12)          172.4761         calculate D2E/DX2 analytically  !
 ! D19   D(1,9,10,13)          -61.5759         calculate D2E/DX2 analytically  !
 ! D20   D(9,10,11,4)          -21.5851         calculate D2E/DX2 analytically  !
 ! D21   D(12,10,11,4)        -136.5323         calculate D2E/DX2 analytically  !
 ! D22   D(13,10,11,4)          89.8528         calculate D2E/DX2 analytically  !
 ! D23   D(9,10,12,58)          74.2182         calculate D2E/DX2 analytically  !
 ! D24   D(11,10,12,58)       -170.3529         calculate D2E/DX2 analytically  !
 ! D25   D(13,10,12,58)        -40.6465         calculate D2E/DX2 analytically  !
 ! D26   D(9,10,13,14)        -177.8277         calculate D2E/DX2 analytically  !
 ! D27   D(11,10,13,14)         67.4439         calculate D2E/DX2 analytically  !
 ! D28   D(12,10,13,14)        -60.5587         calculate D2E/DX2 analytically  !
 ! D29   D(10,12,58,57)        -89.6205         calculate D2E/DX2 analytically  !
 ! D30   D(10,13,14,15)        -16.2196         calculate D2E/DX2 analytically  !
 ! D31   D(10,13,14,16)        120.9263         calculate D2E/DX2 analytically  !
 ! D32   D(10,13,14,17)       -130.8447         calculate D2E/DX2 analytically  !
 ! D33   D(13,14,16,21)        -65.0486         calculate D2E/DX2 analytically  !
 ! D34   D(15,14,16,21)         71.8973         calculate D2E/DX2 analytically  !
 ! D35   D(17,14,16,21)       -173.1591         calculate D2E/DX2 analytically  !
 ! D36   D(13,14,17,18)        -56.6247         calculate D2E/DX2 analytically  !
 ! D37   D(13,14,17,19)         63.742          calculate D2E/DX2 analytically  !
 ! D38   D(13,14,17,20)       -177.0899         calculate D2E/DX2 analytically  !
 ! D39   D(15,14,17,18)       -178.9982         calculate D2E/DX2 analytically  !
 ! D40   D(15,14,17,19)        -58.6315         calculate D2E/DX2 analytically  !
 ! D41   D(15,14,17,20)         60.5367         calculate D2E/DX2 analytically  !
 ! D42   D(16,14,17,18)         58.0638         calculate D2E/DX2 analytically  !
 ! D43   D(16,14,17,19)        178.4305         calculate D2E/DX2 analytically  !
 ! D44   D(16,14,17,20)        -62.4013         calculate D2E/DX2 analytically  !
 ! D45   D(14,16,23,22)         85.9728         calculate D2E/DX2 analytically  !
 ! D46   D(14,16,23,24)        -88.6843         calculate D2E/DX2 analytically  !
 ! D47   D(40,22,23,21)         22.3871         calculate D2E/DX2 analytically  !
 ! D48   D(40,22,23,24)       -162.8951         calculate D2E/DX2 analytically  !
 ! D49   D(48,22,23,21)        162.4646         calculate D2E/DX2 analytically  !
 ! D50   D(48,22,23,24)        -22.8176         calculate D2E/DX2 analytically  !
 ! D51   D(23,22,40,39)        -35.7823         calculate D2E/DX2 analytically  !
 ! D52   D(23,22,40,41)        143.3543         calculate D2E/DX2 analytically  !
 ! D53   D(48,22,40,39)       -174.5704         calculate D2E/DX2 analytically  !
 ! D54   D(48,22,40,41)          4.5662         calculate D2E/DX2 analytically  !
 ! D55   D(21,23,24,25)        168.5082         calculate D2E/DX2 analytically  !
 ! D56   D(21,23,24,26)        -60.5421         calculate D2E/DX2 analytically  !
 ! D57   D(21,23,24,30)         53.1246         calculate D2E/DX2 analytically  !
 ! D58   D(22,23,24,25)         -6.6235         calculate D2E/DX2 analytically  !
 ! D59   D(22,23,24,26)        124.3263         calculate D2E/DX2 analytically  !
 ! D60   D(22,23,24,30)       -122.0071         calculate D2E/DX2 analytically  !
 ! D61   D(23,24,30,29)         50.3138         calculate D2E/DX2 analytically  !
 ! D62   D(23,24,30,31)       -129.91           calculate D2E/DX2 analytically  !
 ! D63   D(25,24,30,29)        -60.7403         calculate D2E/DX2 analytically  !
 ! D64   D(25,24,30,31)        119.0359         calculate D2E/DX2 analytically  !
 ! D65   D(26,24,30,29)        164.8547         calculate D2E/DX2 analytically  !
 ! D66   D(26,24,30,31)        -15.3691         calculate D2E/DX2 analytically  !
 ! D67   D(32,27,28,29)          0.9144         calculate D2E/DX2 analytically  !
 ! D68   D(32,27,28,34)       -177.2025         calculate D2E/DX2 analytically  !
 ! D69   D(33,27,28,29)        179.6034         calculate D2E/DX2 analytically  !
 ! D70   D(33,27,28,34)          1.4865         calculate D2E/DX2 analytically  !
 ! D71   D(28,27,32,31)          0.2812         calculate D2E/DX2 analytically  !
 ! D72   D(28,27,32,36)        179.0248         calculate D2E/DX2 analytically  !
 ! D73   D(33,27,32,31)       -178.3902         calculate D2E/DX2 analytically  !
 ! D74   D(33,27,32,36)          0.3534         calculate D2E/DX2 analytically  !
 ! D75   D(27,28,29,30)         -1.4176         calculate D2E/DX2 analytically  !
 ! D76   D(34,28,29,30)        176.7891         calculate D2E/DX2 analytically  !
 ! D77   D(28,29,30,24)       -179.4474         calculate D2E/DX2 analytically  !
 ! D78   D(28,29,30,31)          0.794          calculate D2E/DX2 analytically  !
 ! D79   D(24,30,31,32)       -179.4121         calculate D2E/DX2 analytically  !
 ! D80   D(24,30,31,35)          1.7725         calculate D2E/DX2 analytically  !
 ! D81   D(29,30,31,32)          0.3366         calculate D2E/DX2 analytically  !
 ! D82   D(29,30,31,35)       -178.4788         calculate D2E/DX2 analytically  !
 ! D83   D(30,31,32,27)         -0.8537         calculate D2E/DX2 analytically  !
 ! D84   D(30,31,32,36)       -179.6047         calculate D2E/DX2 analytically  !
 ! D85   D(35,31,32,27)        177.9356         calculate D2E/DX2 analytically  !
 ! D86   D(35,31,32,36)         -0.8155         calculate D2E/DX2 analytically  !
 ! D87   D(42,37,38,39)          0.3705         calculate D2E/DX2 analytically  !
 ! D88   D(42,37,38,44)       -179.9157         calculate D2E/DX2 analytically  !
 ! D89   D(43,37,38,39)       -179.6604         calculate D2E/DX2 analytically  !
 ! D90   D(43,37,38,44)          0.0534         calculate D2E/DX2 analytically  !
 ! D91   D(38,37,42,41)         -0.0469         calculate D2E/DX2 analytically  !
 ! D92   D(38,37,42,47)       -179.8346         calculate D2E/DX2 analytically  !
 ! D93   D(43,37,42,41)        179.9839         calculate D2E/DX2 analytically  !
 ! D94   D(43,37,42,47)          0.1963         calculate D2E/DX2 analytically  !
 ! D95   D(37,38,39,40)          0.2479         calculate D2E/DX2 analytically  !
 ! D96   D(37,38,39,45)        179.4852         calculate D2E/DX2 analytically  !
 ! D97   D(44,38,39,40)       -179.4696         calculate D2E/DX2 analytically  !
 ! D98   D(44,38,39,45)         -0.2323         calculate D2E/DX2 analytically  !
 ! D99   D(38,39,40,22)        177.9536         calculate D2E/DX2 analytically  !
 ! D100  D(38,39,40,41)         -1.1731         calculate D2E/DX2 analytically  !
 ! D101  D(45,39,40,22)         -1.2664         calculate D2E/DX2 analytically  !
 ! D102  D(45,39,40,41)        179.6069         calculate D2E/DX2 analytically  !
 ! D103  D(22,40,41,42)       -177.6638         calculate D2E/DX2 analytically  !
 ! D104  D(22,40,41,46)          1.3225         calculate D2E/DX2 analytically  !
 ! D105  D(39,40,41,42)          1.5039         calculate D2E/DX2 analytically  !
 ! D106  D(39,40,41,46)       -179.5099         calculate D2E/DX2 analytically  !
 ! D107  D(40,41,42,37)         -0.8971         calculate D2E/DX2 analytically  !
 ! D108  D(40,41,42,47)        178.8915         calculate D2E/DX2 analytically  !
 ! D109  D(46,41,42,37)       -179.8806         calculate D2E/DX2 analytically  !
 ! D110  D(46,41,42,47)         -0.092          calculate D2E/DX2 analytically  !
 ! D111  D(53,49,50,51)       -179.9132         calculate D2E/DX2 analytically  !
 ! D112  D(53,49,50,54)          0.5695         calculate D2E/DX2 analytically  !
 ! D113  D(57,49,50,51)          0.1195         calculate D2E/DX2 analytically  !
 ! D114  D(57,49,50,54)       -179.3977         calculate D2E/DX2 analytically  !
 ! D115  D(50,49,57,52)          3.6837         calculate D2E/DX2 analytically  !
 ! D116  D(50,49,57,58)       -174.4604         calculate D2E/DX2 analytically  !
 ! D117  D(53,49,57,52)       -176.2873         calculate D2E/DX2 analytically  !
 ! D118  D(53,49,57,58)          5.5686         calculate D2E/DX2 analytically  !
 ! D119  D(49,50,51,52)         -3.7515         calculate D2E/DX2 analytically  !
 ! D120  D(49,50,51,55)       -179.8037         calculate D2E/DX2 analytically  !
 ! D121  D(54,50,51,52)        175.7514         calculate D2E/DX2 analytically  !
 ! D122  D(54,50,51,55)         -0.3008         calculate D2E/DX2 analytically  !
 ! D123  D(50,51,52,56)        149.2801         calculate D2E/DX2 analytically  !
 ! D124  D(50,51,52,57)          5.8517         calculate D2E/DX2 analytically  !
 ! D125  D(55,51,52,56)        -34.5422         calculate D2E/DX2 analytically  !
 ! D126  D(55,51,52,57)       -177.9707         calculate D2E/DX2 analytically  !
 ! D127  D(51,52,57,49)         -5.8545         calculate D2E/DX2 analytically  !
 ! D128  D(51,52,57,58)        172.1569         calculate D2E/DX2 analytically  !
 ! D129  D(56,52,57,49)       -152.7393         calculate D2E/DX2 analytically  !
 ! D130  D(56,52,57,58)         25.2721         calculate D2E/DX2 analytically  !
 ! D131  D(49,57,58,12)         14.7182         calculate D2E/DX2 analytically  !
 ! D132  D(52,57,58,12)       -163.0721         calculate D2E/DX2 analytically  !
 --------------------------------------------------------------------------------
 Trust Radius=3.00D-01 FncErr=1.00D-07 GrdErr=1.00D-06
 Number of steps in this run=    302 maximum allowed number of steps=    348.
 Search for a saddle point of order  1.
 GradGradGradGradGradGradGradGradGradGradGradGradGradGradGradGradGradGrad

 Stoichiometry    C21H20F3N4O7PS2
 Framework group  C1[X(C21H20F3N4O7PS2)]
 Deg. of freedom   168
 Full point group                 C1      NOp   1
 Largest Abelian subgroup         C1      NOp   1
 Largest concise Abelian subgroup C1      NOp   1
                         Standard orientation:                         
 ---------------------------------------------------------------------
 Center     Atomic      Atomic             Coordinates (Angstroms)
 Number     Number       Type             X           Y           Z
 ---------------------------------------------------------------------
      1          6           0       -3.401579    3.014404   -1.034871
      2          6           0       -4.635154    2.643544   -0.631546
      3          6           0       -4.821068    1.184413   -0.649131
      4          6           0       -4.432532    0.668246   -1.829732
      5          1           0       -5.307095    3.391637   -0.219753
      6          1           0       -3.053758    4.043489   -1.031031
      7          1           0       -4.592994    1.196442   -2.767795
      8          1           0       -4.691599    0.615990    0.267386
      9          8           0       -2.383321    2.186377   -1.497901
     10         15           0       -2.066275    0.560871   -1.340298
     11          8           0       -3.398699   -0.267069   -1.911927
     12          8           0       -0.905192    0.259594   -2.236276
     13          7           0       -1.892278    0.400767    0.265248
     14         16           0       -1.522136   -0.964810    0.986002
     15          8           0       -1.690646   -2.192725    0.195308
     16          8           0       -0.258833   -0.827839    1.760450
     17          6           0       -2.806585   -1.052989    2.337017
     18          9           0       -2.759942    0.032872    3.112661
     19          9           0       -4.032531   -1.146110    1.797718
     20          9           0       -2.585339   -2.136526    3.084933
     21          1           0        1.378665   -0.523231    1.161159
     22          6           0        2.997490    0.654570    0.460434
     23          7           0        2.350996   -0.500795    0.804804
     24         16           0        3.060029   -2.037195    0.547896
     25          8           0        4.290447   -1.765511   -0.204343
     26          8           0        3.098624   -2.760892    1.814692
     27          6           0       -0.001469   -3.936122   -2.145815
     28          6           0        0.528449   -2.661555   -2.364599
     29          7           0        1.447975   -2.117531   -1.560129
     30          6           0        1.825832   -2.834940   -0.509178
     31          6           0        1.366111   -4.102999   -0.177298
     32          6           0        0.424656   -4.666663   -1.040677
     33          1           0       -0.750310   -4.331482   -2.823193
     34          1           0        0.188264   -2.044000   -3.189278
     35          1           0        1.715622   -4.603094    0.717324
     36          1           0        0.018942   -5.652351   -0.836995
     37          6           0        1.750468    4.348567    2.220874
     38          6           0        0.789331    3.398236    1.875582
     39          6           0        1.166741    2.192246    1.285656
     40          6           0        2.524476    1.927404    1.040801
     41          6           0        3.484343    2.898623    1.373841
     42          6           0        3.101742    4.096653    1.968099
     43          1           0        1.450197    5.283316    2.685005
     44          1           0       -0.262349    3.585963    2.066915
     45          1           0        0.399599    1.467856    1.035154
     46          1           0        4.535351    2.702798    1.179460
     47          1           0        3.854943    4.830891    2.236808
     48          1           0        4.073173    0.529691    0.402509
     49          6           0        1.548442    2.588234   -2.167556
     50          6           0        2.872591    3.084665   -2.182350
     51          6           0        3.696790    2.015145   -1.882382
     52          6           0        2.873804    0.880607   -1.596629
     53          1           0        0.611903    3.097069   -2.351251
     54          1           0        3.159138    4.106802   -2.383101
     55          1           0        4.775823    2.025367   -1.802961
     56          1           0        3.132475   -0.153975   -1.779887
     57          7           0        1.566114    1.288453   -1.872056
     58          1           0        0.706197    0.704223   -1.890484
 ---------------------------------------------------------------------
 Rotational constants (GHZ):      0.1090256      0.0865541      0.0698986
 Standard basis: 6-31G(d,p) (6D, 7F)
 There are   682 symmetry adapted cartesian basis functions of A   symmetry.
 There are   682 symmetry adapted basis functions of A   symmetry.
   682 basis functions,  1276 primitive gaussians,   682 cartesian basis functions
   152 alpha electrons      152 beta electrons
       nuclear repulsion energy      5632.6636304548 Hartrees.
 NAtoms=   58 NActive=   58 NUniq=   58 SFac= 1.00D+00 NAtFMM=   60 NAOKFM=F Big=F
 Integral buffers will be    131072 words long.
 Raffenetti 2 integral format.
 Two-electron integral symmetry is turned on.
 One-electron integrals computed using PRISM.
 NBasis=   682 RedAO= T EigKep=  4.35D-04  NBF=   682
 NBsUse=   682 1.00D-06 EigRej= -1.00D+00 NBFU=   682
 ExpMin= 9.98D-02 ExpMax= 2.19D+04 ExpMxC= 3.30D+03 IAcc=2 IRadAn=         4 AccDes= 0.00D+00
 Harris functional with IExCor=  402 and IRadAn=       4 diagonalized for initial guess.
 HarFok:  IExCor=  402 AccDes= 0.00D+00 IRadAn=         4 IDoV= 1 UseB2=F ITyADJ=14
 ICtDFT=  3500011 ScaDFX=  1.000000  1.000000  1.000000  1.000000
 FoFCou: FMM=F IPFlag=           0 FMFlag=      100000 FMFlg1=           0
         NFxFlg=           0 DoJE=T BraDBF=F KetDBF=T FulRan=T
         wScrn=  0.000000 ICntrl=     500 IOpCl=  0 I1Cent=   200000004 NGrid=           0
         NMat0=    1 NMatS0=      1 NMatT0=    0 NMatD0=    1 NMtDS0=    0 NMtDT0=    0
 Petite list used in FoFCou.
 Requested convergence on RMS density matrix=1.00D-08 within 128 cycles.
 Requested convergence on MAX density matrix=1.00D-06.
 Requested convergence on             energy=1.00D-06.
 No special actions if energy rises.
 Integral accuracy reduced to 1.0D-05 until final iterations.
 Initial convergence to 1.0D-05 achieved.  Increase integral accuracy.
 SCF Done:  E(RB3LYP) =  -2994.91276617     A.U. after   16 cycles
            NFock= 16  Conv=0.53D-08     -V/T= 2.0070
 DoSCS=F DFT=T ScalE2(SS,OS)=  1.000000  1.000000
 Range of M.O.s used for correlation:     1   682
 NBasis=   682 NAE=   152 NBE=   152 NFC=     0 NFV=     0
 NROrb=    682 NOA=   152 NOB=   152 NVA=   530 NVB=   530
 PrsmSu:  requested number of processors reduced to:   2 ShMem   1 Linda.
 Symmetrizing basis deriv contribution to polar:
 IMax=3 JMax=2 DiffMx= 0.00D+00
 G2DrvN: will do    20 centers at a time, making    3 passes.
 Calling FoFCou, ICntrl=  3107 FMM=F I1Cent=   0 AccDes= 0.00D+00.
 Calling FoFCou, ICntrl=  3107 FMM=F I1Cent=   0 AccDes= 0.00D+00.
 Calling FoFCou, ICntrl=  3107 FMM=F I1Cent=   0 AccDes= 0.00D+00.
 End of G2Drv F.D. properties file   721 does not exist.
 End of G2Drv F.D. properties file   722 does not exist.
 End of G2Drv F.D. properties file   788 does not exist.
          IDoAtm=11111111111111111111111111111111111111111111111111
          IDoAtm=11111111
          Differentiating once with respect to nuclear coordinates.
          There are   177 degrees of freedom in the 1st order CPHF.  IDoFFX=6 NUNeed=     0.
    174 vectors produced by pass  0 Test12= 8.06D-14 1.00D-09 XBig12= 2.88D-01 1.90D-01.
 AX will form    60 AO Fock derivatives at one time.
    174 vectors produced by pass  1 Test12= 8.06D-14 1.00D-09 XBig12= 3.70D-02 5.27D-02.
    174 vectors produced by pass  2 Test12= 8.06D-14 1.00D-09 XBig12= 5.17D-04 2.43D-03.
    171 vectors produced by pass  3 Test12= 8.06D-14 1.00D-09 XBig12= 3.35D-06 2.45D-04.
    171 vectors produced by pass  4 Test12= 8.06D-14 1.00D-09 XBig12= 8.76D-09 7.66D-06.
    164 vectors produced by pass  5 Test12= 8.06D-14 1.00D-09 XBig12= 1.40D-11 3.78D-07.
 PrRfSu:  requested number of processors reduced to:   3 ShMem   1 Linda.
 PrRfSu:  requested number of processors reduced to:   3 ShMem   1 Linda.
     43 vectors produced by pass  6 Test12= 8.06D-14 1.00D-09 XBig12= 1.73D-14 9.28D-09.
 InvSVY:  IOpt=1 It=  1 EMax= 1.17D-15
 Solved reduced A of dimension  1071 with   177 vectors.
 End of Minotr F.D. properties file   721 does not exist.
 End of Minotr F.D. properties file   722 does not exist.
 End of Minotr F.D. properties file   788 does not exist.

 **********************************************************************

            Population analysis using the SCF density.

 **********************************************************************

 Orbital symmetries:
       Occupied  (A) (A) (A) (A) (A) (A) (A) (A) (A) (A) (A) (A)
                 (A) (A) (A) (A) (A) (A) (A) (A) (A) (A) (A) (A)
                 (A) (A) (A) (A) (A) (A) (A) (A) (A) (A) (A) (A)
                 (A) (A) (A) (A) (A) (A) (A) (A) (A) (A) (A) (A)
                 (A) (A) (A) (A) (A) (A) (A) (A) (A) (A) (A) (A)
                 (A) (A) (A) (A) (A) (A) (A) (A) (A) (A) (A) (A)
                 (A) (A) (A) (A) (A) (A) (A) (A) (A) (A) (A) (A)
                 (A) (A) (A) (A) (A) (A) (A) (A) (A) (A) (A) (A)
                 (A) (A) (A) (A) (A) (A) (A) (A) (A) (A) (A) (A)
                 (A) (A) (A) (A) (A) (A) (A) (A) (A) (A) (A) (A)
                 (A) (A) (A) (A) (A) (A) (A) (A) (A) (A) (A) (A)
                 (A) (A) (A) (A) (A) (A) (A) (A) (A) (A) (A) (A)
                 (A) (A) (A) (A) (A) (A) (A) (A)
       Virtual   (A) (A) (A) (A) (A) (A) (A) (A) (A) (A) (A) (A)
                 (A) (A) (A) (A) (A) (A) (A) (A) (A) (A) (A) (A)
                 (A) (A) (A) (A) (A) (A) (A) (A) (A) (A) (A) (A)
                 (A) (A) (A) (A) (A) (A) (A) (A) (A) (A) (A) (A)
                 (A) (A) (A) (A) (A) (A) (A) (A) (A) (A) (A) (A)
                 (A) (A) (A) (A) (A) (A) (A) (A) (A) (A) (A) (A)
                 (A) (A) (A) (A) (A) (A) (A) (A) (A) (A) (A) (A)
                 (A) (A) (A) (A) (A) (A) (A) (A) (A) (A) (A) (A)
                 (A) (A) (A) (A) (A) (A) (A) (A) (A) (A) (A) (A)
                 (A) (A) (A) (A) (A) (A) (A) (A) (A) (A) (A) (A)
                 (A) (A) (A) (A) (A) (A) (A) (A) (A) (A) (A) (A)
                 (A) (A) (A) (A) (A) (A) (A) (A) (A) (A) (A) (A)
                 (A) (A) (A) (A) (A) (A) (A) (A) (A) (A) (A) (A)
                 (A) (A) (A) (A) (A) (A) (A) (A) (A) (A) (A) (A)
                 (A) (A) (A) (A) (A) (A) (A) (A) (A) (A) (A) (A)
                 (A) (A) (A) (A) (A) (A) (A) (A) (A) (A) (A) (A)
                 (A) (A) (A) (A) (A) (A) (A) (A) (A) (A) (A) (A)
                 (A) (A) (A) (A) (A) (A) (A) (A) (A) (A) (A) (A)
                 (A) (A) (A) (A) (A) (A) (A) (A) (A) (A) (A) (A)
                 (A) (A) (A) (A) (A) (A) (A) (A) (A) (A) (A) (A)
                 (A) (A) (A) (A) (A) (A) (A) (A) (A) (A) (A) (A)
                 (A) (A) (A) (A) (A) (A) (A) (A) (A) (A) (A) (A)
                 (A) (A) (A) (A) (A) (A) (A) (A) (A) (A) (A) (A)
                 (A) (A) (A) (A) (A) (A) (A) (A) (A) (A) (A) (A)
                 (A) (A) (A) (A) (A) (A) (A) (A) (A) (A) (A) (A)
                 (A) (A) (A) (A) (A) (A) (A) (A) (A) (A) (A) (A)
                 (A) (A) (A) (A) (A) (A) (A) (A) (A) (A) (A) (A)
                 (A) (A) (A) (A) (A) (A) (A) (A) (A) (A) (A) (A)
                 (A) (A) (A) (A) (A) (A) (A) (A) (A) (A) (A) (A)
                 (A) (A) (A) (A) (A) (A) (A) (A) (A) (A) (A) (A)
                 (A) (A) (A) (A) (A) (A) (A) (A) (A) (A) (A) (A)
                 (A) (A) (A) (A) (A) (A) (A) (A) (A) (A) (A) (A)
                 (A) (A) (A) (A) (A) (A) (A) (A) (A) (A) (A) (A)
                 (A) (A) (A) (A) (A) (A) (A) (A) (A) (A) (A) (A)
                 (A) (A) (A) (A) (A) (A) (A) (A) (A) (A) (A) (A)
                 (A) (A) (A) (A) (A) (A) (A) (A) (A) (A) (A) (A)
                 (A) (A) (A) (A) (A) (A) (A) (A) (A) (A) (A) (A)
                 (A) (A) (A) (A) (A) (A) (A) (A) (A) (A) (A) (A)
                 (A) (A) (A) (A) (A) (A) (A) (A) (A) (A) (A) (A)
                 (A) (A) (A) (A) (A) (A) (A) (A) (A) (A) (A) (A)
                 (A) (A) (A) (A) (A) (A) (A) (A) (A) (A) (A) (A)
                 (A) (A) (A) (A) (A) (A) (A) (A) (A) (A) (A) (A)
                 (A) (A) (A) (A) (A) (A) (A) (A) (A) (A) (A) (A)
                 (A) (A) (A) (A) (A) (A) (A) (A) (A) (A) (A) (A)
                 (A) (A)
 The electronic state is 1-A.
 Alpha  occ. eigenvalues --  -89.12921 -89.10878 -77.24363 -24.73691 -24.73400
 Alpha  occ. eigenvalues --  -24.73392 -19.19399 -19.18307 -19.16268 -19.16114
 Alpha  occ. eigenvalues --  -19.14016 -19.13377 -19.11639 -14.39977 -14.39612
 Alpha  occ. eigenvalues --  -14.36263 -14.31551 -10.44120 -10.29911 -10.26819
 Alpha  occ. eigenvalues --  -10.26541 -10.25926 -10.24490 -10.24321 -10.24226
 Alpha  occ. eigenvalues --  -10.22738 -10.22625 -10.22509 -10.22147 -10.21773
 Alpha  occ. eigenvalues --  -10.21636 -10.21338 -10.21167 -10.21035 -10.20859
 Alpha  occ. eigenvalues --  -10.20659 -10.20224 -10.18574  -8.15507  -8.13326
 Alpha  occ. eigenvalues --   -6.68752  -6.12046  -6.11899  -6.11770  -6.09779
 Alpha  occ. eigenvalues --   -6.09750  -6.09693  -4.85260  -4.85092  -4.84900
 Alpha  occ. eigenvalues --   -1.31436  -1.22675  -1.22664  -1.12903  -1.10162
 Alpha  occ. eigenvalues --   -1.08449  -1.04236  -1.01947  -1.00767  -0.98947
 Alpha  occ. eigenvalues --   -0.97420  -0.97293  -0.96218  -0.88515  -0.87528
 Alpha  occ. eigenvalues --   -0.82495  -0.81572  -0.80825  -0.80281  -0.78657
 Alpha  occ. eigenvalues --   -0.76480  -0.75445  -0.73474  -0.72320  -0.72024
 Alpha  occ. eigenvalues --   -0.67694  -0.67462  -0.65436  -0.63894  -0.63390
 Alpha  occ. eigenvalues --   -0.61864  -0.61597  -0.61071  -0.59858  -0.59171
 Alpha  occ. eigenvalues --   -0.59113  -0.58588  -0.57601  -0.57555  -0.57246
 Alpha  occ. eigenvalues --   -0.54855  -0.53568  -0.52900  -0.51683  -0.51021
 Alpha  occ. eigenvalues --   -0.50260  -0.49905  -0.49549  -0.49267  -0.47837
 Alpha  occ. eigenvalues --   -0.47171  -0.46736  -0.46673  -0.46606  -0.46389
 Alpha  occ. eigenvalues --   -0.46160  -0.45712  -0.45023  -0.44501  -0.44449
 Alpha  occ. eigenvalues --   -0.44108  -0.44072  -0.43770  -0.43096  -0.42765
 Alpha  occ. eigenvalues --   -0.42690  -0.42423  -0.42342  -0.41818  -0.41605
 Alpha  occ. eigenvalues --   -0.40685  -0.40587  -0.39994  -0.39847  -0.39492
 Alpha  occ. eigenvalues --   -0.38564  -0.37417  -0.36926  -0.36534  -0.36251
 Alpha  occ. eigenvalues --   -0.35465  -0.35025  -0.33624  -0.33333  -0.33118
 Alpha  occ. eigenvalues --   -0.32237  -0.32101  -0.31896  -0.30916  -0.30577
 Alpha  occ. eigenvalues --   -0.30156  -0.29500  -0.28940  -0.28554  -0.28304
 Alpha  occ. eigenvalues --   -0.27314  -0.27009  -0.26681  -0.25924  -0.25372
 Alpha  occ. eigenvalues --   -0.24811  -0.22539
 Alpha virt. eigenvalues --   -0.09868  -0.05583  -0.03678  -0.03533  -0.02122
 Alpha virt. eigenvalues --   -0.01852   0.02176   0.03113   0.04150   0.05764
 Alpha virt. eigenvalues --    0.06009   0.06994   0.07573   0.07847   0.08232
 Alpha virt. eigenvalues --    0.08447   0.08943   0.09126   0.09831   0.10333
 Alpha virt. eigenvalues --    0.10906   0.11122   0.11634   0.12253   0.13301
 Alpha virt. eigenvalues --    0.13603   0.13889   0.14336   0.14442   0.14541
 Alpha virt. eigenvalues --    0.14936   0.15371   0.16018   0.16616   0.16867
 Alpha virt. eigenvalues --    0.17381   0.17455   0.17854   0.18069   0.18814
 Alpha virt. eigenvalues --    0.19185   0.20222   0.20852   0.21189   0.21744
 Alpha virt. eigenvalues --    0.22138   0.23237   0.23677   0.24380   0.25051
 Alpha virt. eigenvalues --    0.25412   0.25739   0.26888   0.27504   0.28729
 Alpha virt. eigenvalues --    0.28814   0.29747   0.30650   0.31467   0.31676
 Alpha virt. eigenvalues --    0.32566   0.33334   0.33609   0.34067   0.34962
 Alpha virt. eigenvalues --    0.35391   0.35920   0.36616   0.37673   0.38525
 Alpha virt. eigenvalues --    0.39970   0.40550   0.41438   0.42312   0.42763
 Alpha virt. eigenvalues --    0.43655   0.44756   0.45435   0.45913   0.46533
 Alpha virt. eigenvalues --    0.47468   0.47811   0.49040   0.49446   0.50458
 Alpha virt. eigenvalues --    0.51313   0.52175   0.52430   0.52647   0.52919
 Alpha virt. eigenvalues --    0.53396   0.53945   0.54244   0.54691   0.55289
 Alpha virt. eigenvalues --    0.55497   0.55935   0.56454   0.56688   0.56886
 Alpha virt. eigenvalues --    0.57224   0.57307   0.57679   0.57932   0.58287
 Alpha virt. eigenvalues --    0.58431   0.58742   0.59217   0.59462   0.59778
 Alpha virt. eigenvalues --    0.60170   0.60883   0.61102   0.61666   0.62186
 Alpha virt. eigenvalues --    0.62434   0.62966   0.63615   0.64122   0.64598
 Alpha virt. eigenvalues --    0.64844   0.65742   0.65836   0.66898   0.67339
 Alpha virt. eigenvalues --    0.67691   0.69888   0.70986   0.71312   0.72507
 Alpha virt. eigenvalues --    0.73531   0.74070   0.74404   0.75319   0.75825
 Alpha virt. eigenvalues --    0.76387   0.76760   0.76923   0.77479   0.78224
 Alpha virt. eigenvalues --    0.78951   0.79659   0.80127   0.80449   0.80955
 Alpha virt. eigenvalues --    0.81282   0.81436   0.81677   0.82307   0.82469
 Alpha virt. eigenvalues --    0.82551   0.82880   0.83139   0.84409   0.85262
 Alpha virt. eigenvalues --    0.86097   0.86381   0.87079   0.87245   0.87381
 Alpha virt. eigenvalues --    0.88076   0.89044   0.89323   0.89634   0.90469
 Alpha virt. eigenvalues --    0.91061   0.91646   0.92449   0.92709   0.93725
 Alpha virt. eigenvalues --    0.94261   0.94821   0.95267   0.96029   0.96594
 Alpha virt. eigenvalues --    0.97496   0.97953   0.98338   0.98658   0.99113
 Alpha virt. eigenvalues --    0.99485   0.99954   1.01058   1.01659   1.02828
 Alpha virt. eigenvalues --    1.03186   1.03508   1.04915   1.05365   1.05675
 Alpha virt. eigenvalues --    1.06401   1.06967   1.07142   1.08070   1.08545
 Alpha virt. eigenvalues --    1.09144   1.09781   1.10453   1.10883   1.11285
 Alpha virt. eigenvalues --    1.11957   1.12378   1.13000   1.13780   1.14406
 Alpha virt. eigenvalues --    1.14636   1.15485   1.15716   1.16047   1.17335
 Alpha virt. eigenvalues --    1.17928   1.18553   1.19197   1.19519   1.19981
 Alpha virt. eigenvalues --    1.20612   1.22027   1.22293   1.22686   1.23422
 Alpha virt. eigenvalues --    1.24502   1.24880   1.25374   1.26469   1.26698
 Alpha virt. eigenvalues --    1.27427   1.29101   1.29447   1.30077   1.31469
 Alpha virt. eigenvalues --    1.31978   1.32832   1.33030   1.33335   1.34172
 Alpha virt. eigenvalues --    1.34964   1.35634   1.36067   1.37062   1.37427
 Alpha virt. eigenvalues --    1.37671   1.37760   1.38024   1.38527   1.38825
 Alpha virt. eigenvalues --    1.39002   1.39642   1.40133   1.41059   1.41883
 Alpha virt. eigenvalues --    1.42105   1.42616   1.42657   1.43972   1.45455
 Alpha virt. eigenvalues --    1.45615   1.46448   1.47426   1.48746   1.49392
 Alpha virt. eigenvalues --    1.50737   1.51249   1.52878   1.53544   1.54129
 Alpha virt. eigenvalues --    1.55810   1.57856   1.58905   1.60827   1.61153
 Alpha virt. eigenvalues --    1.62888   1.63935   1.64573   1.64774   1.65961
 Alpha virt. eigenvalues --    1.67165   1.67839   1.70043   1.70903   1.71448
 Alpha virt. eigenvalues --    1.72505   1.73077   1.74833   1.75272   1.75684
 Alpha virt. eigenvalues --    1.76179   1.76888   1.78080   1.78368   1.78673
 Alpha virt. eigenvalues --    1.79715   1.79916   1.80240   1.80766   1.81009
 Alpha virt. eigenvalues --    1.81448   1.82084   1.82370   1.82646   1.83047
 Alpha virt. eigenvalues --    1.83242   1.84009   1.85131   1.85360   1.85853
 Alpha virt. eigenvalues --    1.86308   1.86905   1.87402   1.87764   1.88156
 Alpha virt. eigenvalues --    1.88480   1.88800   1.89344   1.90164   1.91158
 Alpha virt. eigenvalues --    1.91891   1.92039   1.92136   1.93315   1.93700
 Alpha virt. eigenvalues --    1.94847   1.94983   1.95354   1.95555   1.96038
 Alpha virt. eigenvalues --    1.96568   1.97016   1.97645   1.98154   1.98259
 Alpha virt. eigenvalues --    1.98489   1.98892   1.99997   2.00304   2.00697
 Alpha virt. eigenvalues --    2.01475   2.01668   2.02554   2.03229   2.04335
 Alpha virt. eigenvalues --    2.04750   2.05454   2.06142   2.06375   2.06865
 Alpha virt. eigenvalues --    2.07453   2.08356   2.10075   2.10404   2.11137
 Alpha virt. eigenvalues --    2.11711   2.12050   2.12607   2.13310   2.14472
 Alpha virt. eigenvalues --    2.14846   2.15886   2.16413   2.17010   2.17702
 Alpha virt. eigenvalues --    2.18687   2.20133   2.21523   2.21767   2.22782
 Alpha virt. eigenvalues --    2.23329   2.24818   2.25553   2.27040   2.27304
 Alpha virt. eigenvalues --    2.27633   2.29005   2.29368   2.30055   2.31003
 Alpha virt. eigenvalues --    2.31713   2.32024   2.32317   2.33505   2.34136
 Alpha virt. eigenvalues --    2.35230   2.35559   2.36070   2.36472   2.36783
 Alpha virt. eigenvalues --    2.37876   2.38054   2.38156   2.38865   2.39533
 Alpha virt. eigenvalues --    2.40329   2.40989   2.41730   2.42496   2.43178
 Alpha virt. eigenvalues --    2.44294   2.44937   2.45148   2.45490   2.46311
 Alpha virt. eigenvalues --    2.46797   2.47198   2.47525   2.47955   2.48782
 Alpha virt. eigenvalues --    2.48922   2.49896   2.49934   2.50694   2.51842
 Alpha virt. eigenvalues --    2.53863   2.54229   2.55047   2.55775   2.55844
 Alpha virt. eigenvalues --    2.56203   2.56809   2.58011   2.58465   2.58747
 Alpha virt. eigenvalues --    2.60050   2.60761   2.61324   2.62265   2.63295
 Alpha virt. eigenvalues --    2.64187   2.64430   2.65314   2.67316   2.68389
 Alpha virt. eigenvalues --    2.69250   2.70074   2.70412   2.70541   2.72007
 Alpha virt. eigenvalues --    2.72877   2.73234   2.73632   2.75193   2.75678
 Alpha virt. eigenvalues --    2.77352   2.77792   2.78615   2.79377   2.80754
 Alpha virt. eigenvalues --    2.82125   2.82233   2.82865   2.84318   2.85518
 Alpha virt. eigenvalues --    2.86087   2.88822   2.89814   2.91119   2.92804
 Alpha virt. eigenvalues --    2.94900   2.97051   2.98202   3.01956   3.02825
 Alpha virt. eigenvalues --    3.03223   3.03421   3.04539   3.04821   3.05609
 Alpha virt. eigenvalues --    3.08006   3.13286   3.15563   3.17722   3.20687
 Alpha virt. eigenvalues --    3.21926   3.22135   3.25390   3.26514   3.27787
 Alpha virt. eigenvalues --    3.27869   3.30266   3.31310   3.31553   3.36793
 Alpha virt. eigenvalues --    3.41198   3.41595   3.45213   3.46098   3.47024
 Alpha virt. eigenvalues --    3.48215   3.51832   3.57003   3.60584   3.68808
 Alpha virt. eigenvalues --    3.76122   3.79693   3.83586   3.86067   3.88467
 Alpha virt. eigenvalues --    3.91961   3.95292   3.98228   4.00873   4.03417
 Alpha virt. eigenvalues --    4.04487   4.06668   4.08627   4.10509   4.12578
 Alpha virt. eigenvalues --    4.13062   4.15297   4.17038   4.20233   4.21942
 Alpha virt. eigenvalues --    4.24122   4.26918   4.31025   4.33795   4.37062
 Alpha virt. eigenvalues --    4.39574   4.41156   4.43015   4.44679   4.47977
 Alpha virt. eigenvalues --    4.48785   4.60910   4.62953   4.65488   4.69921
 Alpha virt. eigenvalues --    4.70679   4.71506   4.74098   4.84353   5.14424
          Condensed to atoms (all electrons):
 Mulliken charges:
               1
     1  C    0.174042
     2  C   -0.115898
     3  C   -0.152423
     4  C    0.090996
     5  H    0.097143
     6  H    0.107088
     7  H    0.115838
     8  H    0.129285
     9  O   -0.551316
    10  P    1.262008
    11  O   -0.527555
    12  O   -0.606353
    13  N   -0.730068
    14  S    1.131376
    15  O   -0.539470
    16  O   -0.594023
    17  C    0.610351
    18  F   -0.235309
    19  F   -0.236549
    20  F   -0.231979
    21  H    0.384732
    22  C    0.047923
    23  N   -0.643671
    24  S    1.257615
    25  O   -0.545001
    26  O   -0.484735
    27  C   -0.076032
    28  C    0.130666
    29  N   -0.462883
    30  C    0.014892
    31  C   -0.066619
    32  C   -0.042102
    33  H    0.116315
    34  H    0.139961
    35  H    0.147376
    36  H    0.120208
    37  C   -0.075920
    38  C   -0.101331
    39  C   -0.111408
    40  C    0.125447
    41  C   -0.107944
    42  C   -0.089722
    43  H    0.097737
    44  H    0.108761
    45  H    0.153463
    46  H    0.092836
    47  H    0.096849
    48  H    0.174054
    49  C    0.129801
    50  C   -0.115813
    51  C   -0.069637
    52  C   -0.021859
    53  H    0.151344
    54  H    0.108063
    55  H    0.113682
    56  H    0.179672
    57  N   -0.441807
    58  H    0.367902
 Sum of Mulliken charges =   0.00000
 Mulliken charges with hydrogens summed into heavy atoms:
               1
     1  C    0.281129
     2  C   -0.018755
     3  C   -0.023138
     4  C    0.206833
     9  O   -0.551316
    10  P    1.262008
    11  O   -0.527555
    12  O   -0.606353
    13  N   -0.730068
    14  S    1.131376
    15  O   -0.539470
    16  O   -0.594023
    17  C    0.610351
    18  F   -0.235309
    19  F   -0.236549
    20  F   -0.231979
    22  C    0.221977
    23  N   -0.258939
    24  S    1.257615
    25  O   -0.545001
    26  O   -0.484735
    27  C    0.040283
    28  C    0.270627
    29  N   -0.462883
    30  C    0.014892
    31  C    0.080757
    32  C    0.078106
    37  C    0.021817
    38  C    0.007431
    39  C    0.042055
    40  C    0.125447
    41  C   -0.015108
    42  C    0.007127
    49  C    0.281145
    50  C   -0.007750
    51  C    0.044045
    52  C    0.157813
    57  N   -0.073905
 APT charges:
               1
     1  C   -0.723154
     2  C   -0.528902
     3  C    0.304805
     4  C   -0.513190
     5  H    1.011197
     6  H    0.581399
     7  H    0.720847
     8  H    0.040771
     9  O   -0.515417
    10  P    0.719023
    11  O   -0.338811
    12  O   -0.687252
    13  N   -0.643582
    14  S    0.051170
    15  O   -0.195590
    16  O   -0.541286
    17  C   -0.084474
    18  F    0.059645
    19  F    0.210215
    20  F    0.239745
    21  H    0.108065
    22  C   -0.701617
    23  N   -0.281873
    24  S   -0.036911
    25  O    0.060687
    26  O    0.088510
    27  C   -0.417751
    28  C   -0.341688
    29  N   -0.837039
    30  C   -0.298560
    31  C   -0.334282
    32  C   -0.376423
    33  H    0.763786
    34  H    0.321087
    35  H    0.699273
    36  H    0.941311
    37  C   -0.386808
    38  C   -0.482014
    39  C   -0.602511
    40  C   -0.540794
    41  C   -0.454628
    42  C   -0.324475
    43  H    0.948521
    44  H    0.321651
    45  H   -0.079062
    46  H    0.697786
    47  H    1.141020
    48  H    0.796088
    49  C   -0.315284
    50  C   -0.311022
    51  C   -0.564939
    52  C   -0.525238
    53  H    0.372345
    54  H    0.998627
    55  H    0.908649
    56  H    0.342998
    57  N   -0.574090
    58  H    0.109445
 Sum of APT charges =   0.00000
 APT charges with hydrogens summed into heavy atoms:
               1
     1  C   -0.141755
     2  C    0.482294
     3  C    0.345577
     4  C    0.207657
     9  O   -0.515417
    10  P    0.719023
    11  O   -0.338811
    12  O   -0.687252
    13  N   -0.643582
    14  S    0.051170
    15  O   -0.195590
    16  O   -0.541286
    17  C   -0.084474
    18  F    0.059645
    19  F    0.210215
    20  F    0.239745
    22  C    0.094471
    23  N   -0.173807
    24  S   -0.036911
    25  O    0.060687
    26  O    0.088510
    27  C    0.346034
    28  C   -0.020601
    29  N   -0.837039
    30  C   -0.298560
    31  C    0.364991
    32  C    0.564889
    37  C    0.561713
    38  C   -0.160363
    39  C   -0.681574
    40  C   -0.540794
    41  C    0.243158
    42  C    0.816545
    49  C    0.057060
    50  C    0.687605
    51  C    0.343710
    52  C   -0.182239
    57  N   -0.464645
 Electronic spatial extent (au):  <R**2>=          17015.7736
 Charge=              0.0000 electrons
 Dipole moment (field-independent basis, Debye):
    X=              2.1253    Y=              5.3794    Z=             -2.7157  Tot=              6.3898
 Quadrupole moment (field-independent basis, Debye-Ang):
   XX=           -233.7148   YY=           -196.4784   ZZ=           -238.6632
   XY=             11.0795   XZ=             -4.5095   YZ=              9.7057
 Traceless Quadrupole moment (field-independent basis, Debye-Ang):
   XX=            -10.7626   YY=             26.4737   ZZ=            -15.7111
   XY=             11.0795   XZ=             -4.5095   YZ=              9.7057
 Octapole moment (field-independent basis, Debye-Ang**2):
  XXX=            -66.3649  YYY=            -44.7482  ZZZ=             23.7142  XYY=            -18.3536
  XXY=            114.0041  XXZ=              9.2136  XZZ=            -33.2881  YZZ=              0.3739
  YYZ=            -12.2425  XYZ=             11.0402
 Hexadecapole moment (field-independent basis, Debye-Ang**3):
 XXXX=         -10210.4504 YYYY=          -6770.9808 ZZZZ=          -3908.9332 XXXY=            309.3661
 XXXZ=           -178.1511 YYYX=             99.9013 YYYZ=            102.1247 ZZZX=           -142.6667
 ZZZY=            -30.7730 XXYY=          -2880.9448 XXZZ=          -2355.5914 YYZZ=          -1820.8787
 XXYZ=            -15.3398 YYXZ=            -13.2966 ZZXY=             86.5611
 N-N= 5.632663630455D+03 E-N=-1.831138941406D+04  KE= 2.974147528356D+03
  Exact polarizability:   0.000   0.000   0.000   0.000   0.000   0.000
 Approx polarizability: 514.303  18.284 583.500  14.320 -23.564 488.163
 Calling FoFJK, ICntrl=    100147 FMM=F ISym2X=0 I1Cent= 0 IOpClX= 0 NMat=1 NMatS=1 NMatT=0.
 ***** Axes restored to original set *****
 -------------------------------------------------------------------
 Center     Atomic                   Forces (Hartrees/Bohr)
 Number     Number              X              Y              Z
 -------------------------------------------------------------------
      1        6           0.000002639   -0.000001730    0.000005288
      2        6          -0.000001051    0.000001921    0.000000723
      3        6           0.000002164    0.000000409   -0.000001607
      4        6          -0.000004919    0.000004442   -0.000000297
      5        1           0.000000798    0.000001485    0.000002466
      6        1           0.000000444   -0.000000315    0.000003105
      7        1           0.000000422   -0.000002563    0.000000618
      8        1           0.000000620    0.000001807    0.000000275
      9        8          -0.000003581    0.000006631    0.000002153
     10       15          -0.000002129   -0.000014508    0.000007931
     11        8           0.000008651    0.000000080   -0.000007946
     12        8          -0.000000885   -0.000000062   -0.000003067
     13        7          -0.000000091   -0.000001970   -0.000004931
     14       16          -0.000007572    0.000005622   -0.000004495
     15        8           0.000000018   -0.000004155    0.000001730
     16        8           0.000007646    0.000002628   -0.000000968
     17        6           0.000002797    0.000000299   -0.000002507
     18        9           0.000000255    0.000005935   -0.000002037
     19        9           0.000001028    0.000004776   -0.000002179
     20        9          -0.000001312    0.000007105   -0.000004841
     21        1          -0.000007751    0.000010643   -0.000002330
     22        6           0.000004320    0.000019634    0.000140365
     23        7          -0.000000427   -0.000013794   -0.000002717
     24       16          -0.000000575    0.000004049   -0.000005841
     25        8          -0.000000679   -0.000003811   -0.000000918
     26        8           0.000000972    0.000003563   -0.000001299
     27        6          -0.000002699   -0.000000679   -0.000005640
     28        6           0.000000310   -0.000003143   -0.000004152
     29        7          -0.000000344   -0.000002514   -0.000003892
     30        6          -0.000004092   -0.000004826   -0.000002587
     31        6           0.000000538   -0.000001123   -0.000005572
     32        6          -0.000000270    0.000000367   -0.000005758
     33        1          -0.000001643   -0.000003460   -0.000006581
     34        1          -0.000002868   -0.000003986   -0.000003467
     35        1          -0.000002093    0.000002444   -0.000007086
     36        1          -0.000002329   -0.000001134   -0.000008051
     37        6           0.000002914    0.000002983    0.000006031
     38        6           0.000001434    0.000000294    0.000005364
     39        6           0.000001241    0.000003810    0.000000828
     40        6          -0.000003309    0.000002395    0.000003249
     41        6           0.000002181   -0.000001156    0.000006072
     42        6           0.000000340    0.000001917    0.000004365
     43        1           0.000001631    0.000003645    0.000006385
     44        1           0.000001686    0.000003583    0.000003459
     45        1          -0.000000266    0.000001693    0.000002699
     46        1           0.000001459    0.000001251    0.000003801
     47        1           0.000002064    0.000002460    0.000006623
     48        1          -0.000001529   -0.000001844    0.000002636
     49        6           0.000004951    0.000002458    0.000007448
     50        6          -0.000001633    0.000000274    0.000003899
     51        6           0.000003576   -0.000003399    0.000002133
     52        6          -0.000003064   -0.000012749   -0.000134584
     53        1           0.000000739   -0.000003434    0.000001938
     54        1           0.000001555   -0.000002613    0.000005972
     55        1          -0.000000740   -0.000002930    0.000004203
     56        1          -0.000000272   -0.000002539   -0.000006746
     57        7           0.000001348   -0.000009184   -0.000004497
     58        1          -0.000002618   -0.000006981    0.000004832
 -------------------------------------------------------------------
 Cartesian Forces:  Max     0.000140365 RMS     0.000015370
 FormGI is forming the generalized inverse of G from B-inverse, IUseBI=4.

 GradGradGradGradGradGradGradGradGradGradGradGradGradGradGradGradGradGrad
 Berny optimization.
 Internal  Forces:  Max     0.000920130 RMS     0.000113520
 Search for a saddle point.
 Step number   1 out of a maximum of  302
 All quantities printed in internal units (Hartrees-Bohrs-Radians)
 Swapping is turned off.
 Second derivative matrix not updated -- analytic derivatives used.
 ITU=  0
     Eigenvalues ---   -0.03540   0.00100   0.00162   0.00163   0.00282
     Eigenvalues ---    0.00341   0.00439   0.00577   0.00658   0.00777
     Eigenvalues ---    0.00864   0.01006   0.01083   0.01139   0.01312
     Eigenvalues ---    0.01547   0.01590   0.01669   0.01703   0.01716
     Eigenvalues ---    0.01727   0.01806   0.01810   0.01919   0.02091
     Eigenvalues ---    0.02113   0.02309   0.02333   0.02350   0.02382
     Eigenvalues ---    0.02548   0.02559   0.02702   0.02740   0.02761
     Eigenvalues ---    0.02797   0.02811   0.02841   0.02922   0.03144
     Eigenvalues ---    0.03196   0.03464   0.03627   0.03758   0.03997
     Eigenvalues ---    0.04790   0.05045   0.06174   0.06838   0.07759
     Eigenvalues ---    0.08042   0.08471   0.08508   0.09119   0.09534
     Eigenvalues ---    0.09783   0.09875   0.10024   0.10651   0.10683
     Eigenvalues ---    0.10747   0.10876   0.10916   0.11022   0.11233
     Eigenvalues ---    0.11274   0.11464   0.11640   0.11869   0.12149
     Eigenvalues ---    0.12201   0.12273   0.12332   0.12408   0.12715
     Eigenvalues ---    0.13019   0.13106   0.13250   0.13333   0.13479
     Eigenvalues ---    0.13803   0.14448   0.15457   0.15767   0.16509
     Eigenvalues ---    0.16650   0.17032   0.17817   0.18219   0.18435
     Eigenvalues ---    0.18822   0.19222   0.19374   0.19537   0.20407
     Eigenvalues ---    0.20450   0.21100   0.21194   0.21403   0.21860
     Eigenvalues ---    0.21990   0.22978   0.23205   0.24456   0.24802
     Eigenvalues ---    0.25144   0.26371   0.29021   0.29039   0.29383
     Eigenvalues ---    0.29814   0.32301   0.33583   0.34007   0.35038
     Eigenvalues ---    0.35080   0.35461   0.35821   0.36033   0.36056
     Eigenvalues ---    0.36108   0.36158   0.36252   0.36317   0.36349
     Eigenvalues ---    0.36360   0.36447   0.36611   0.36682   0.36927
     Eigenvalues ---    0.37103   0.37169   0.37281   0.37553   0.37617
     Eigenvalues ---    0.37983   0.38202   0.38902   0.39592   0.39806
     Eigenvalues ---    0.40386   0.41732   0.42353   0.42506   0.42793
     Eigenvalues ---    0.44003   0.44669   0.46302   0.46601   0.47114
     Eigenvalues ---    0.48036   0.51202   0.51445   0.52440   0.53550
     Eigenvalues ---    0.54226   0.55914   0.56111   0.56375   0.58053
     Eigenvalues ---    0.58844   0.59340   0.62354   0.67499   0.82663
     Eigenvalues ---    1.63100   5.79579   8.03106
 Eigenvectors required to have negative eigenvalues:
                         D125      D123      D129       D51       D52
   1                   -0.28737  -0.27682   0.27649  -0.26453  -0.25910
                          D49      D130       D50       D48       D54
   1                   -0.25257   0.24591  -0.24240   0.20723   0.19817
 RFO step:  Lambda0=1.453178916D-06 Lambda=-8.48597332D-07.
 Linear search not attempted -- option 19 set.
 Iteration  1 RMS(Cart)=  0.00112836 RMS(Int)=  0.00000055
 Iteration  2 RMS(Cart)=  0.00000206 RMS(Int)=  0.00000018
 Iteration  3 RMS(Cart)=  0.00000000 RMS(Int)=  0.00000018
 Variable       Old X    -DE/DX   Delta X   Delta X   Delta X     New X
                                 (Linear)    (Quad)   (Total)
    R1        2.55072   0.00001   0.00000   0.00000   0.00000   2.55072
    R2        2.05278   0.00000   0.00000   0.00000   0.00000   2.05278
    R3        2.62996   0.00000   0.00000   0.00003   0.00003   2.62999
    R4        2.77985   0.00001   0.00000   0.00001   0.00001   2.77985
    R5        2.05340   0.00000   0.00000   0.00000   0.00000   2.05340
    R6        2.54321   0.00000   0.00000   0.00001   0.00001   2.54322
    R7        2.05266   0.00000   0.00000   0.00000   0.00000   2.05266
    R8        2.05685   0.00000   0.00000   0.00000   0.00000   2.05686
    R9        2.63912   0.00000   0.00000  -0.00003  -0.00003   2.63909
   R10        3.14378  -0.00001   0.00000  -0.00005  -0.00005   3.14373
   R11        3.15511   0.00000   0.00000   0.00005   0.00005   3.15515
   R12        2.82933   0.00008   0.00000   0.00006   0.00006   2.82939
   R13        3.06677   0.00014   0.00000  -0.00010  -0.00010   3.06666
   R14        3.22576  -0.00003   0.00000  -0.00076  -0.00076   3.22500
   R15        3.00062   0.00007   0.00000   0.00008   0.00008   3.00069
   R16        2.77820  -0.00001   0.00000  -0.00001  -0.00001   2.77819
   R17        2.81212   0.00007   0.00000  -0.00008  -0.00008   2.81204
   R18        3.52667   0.00000   0.00000   0.00000   0.00000   3.52667
   R19        3.34505  -0.00004   0.00000   0.00125   0.00125   3.34630
   R20        2.52326   0.00000   0.00000  -0.00001  -0.00001   2.52325
   R21        2.53706   0.00000   0.00000   0.00001   0.00001   2.53707
   R22        2.52289   0.00000   0.00000   0.00001   0.00001   2.52290
   R23        1.95741  -0.00005   0.00000  -0.00015  -0.00015   1.95727
   R24        2.58514  -0.00005   0.00000   0.00063   0.00063   2.58577
   R25        2.79058   0.00000   0.00000   0.00041   0.00041   2.79099
   R26        2.04932   0.00000   0.00000   0.00006   0.00006   2.04939
   R27        3.23428   0.00000   0.00000  -0.00048  -0.00048   3.23380
   R28        2.77320   0.00000   0.00000   0.00006   0.00006   2.77326
   R29        2.75796   0.00000   0.00000   0.00002   0.00002   2.75799
   R30        3.42090   0.00000   0.00000   0.00004   0.00004   3.42093
   R31        2.64102   0.00000   0.00000  -0.00001  -0.00001   2.64102
   R32        2.62978   0.00000   0.00000   0.00000   0.00000   2.62978
   R33        2.04921   0.00000   0.00000   0.00000   0.00000   2.04921
   R34        2.52734   0.00000   0.00000   0.00001   0.00001   2.52735
   R35        2.05033   0.00000   0.00000   0.00000   0.00000   2.05033
   R36        2.50839   0.00000   0.00000   0.00003   0.00003   2.50842
   R37        2.62493   0.00000   0.00000   0.00001   0.00001   2.62494
   R38        2.63851   0.00000   0.00000  -0.00001  -0.00001   2.63850
   R39        2.04632   0.00000   0.00000   0.00000   0.00000   2.04632
   R40        2.05074   0.00000   0.00000   0.00000   0.00000   2.05074
   R41        2.63625   0.00000   0.00000  -0.00001  -0.00001   2.63623
   R42        2.64109   0.00000   0.00000  -0.00001  -0.00001   2.64108
   R43        2.05219   0.00000   0.00000   0.00000   0.00000   2.05219
   R44        2.63538   0.00000   0.00000   0.00003   0.00003   2.63541
   R45        2.05092   0.00000   0.00000   0.00000   0.00000   2.05093
   R46        2.65474   0.00000   0.00000  -0.00006  -0.00006   2.65468
   R47        2.04928   0.00000   0.00000  -0.00001  -0.00001   2.04928
   R48        2.65607   0.00000   0.00000  -0.00005  -0.00005   2.65602
   R49        2.62856   0.00000   0.00000   0.00003   0.00003   2.62859
   R50        2.05342   0.00000   0.00000   0.00001   0.00001   2.05343
   R51        2.05157   0.00000   0.00000   0.00000   0.00000   2.05157
   R52        2.67250   0.00000   0.00000   0.00029   0.00029   2.67279
   R53        2.04384   0.00000   0.00000   0.00003   0.00003   2.04387
   R54        2.51913   0.00000   0.00000  -0.00036  -0.00036   2.51877
   R55        2.61381  -0.00001   0.00000  -0.00032  -0.00032   2.61349
   R56        2.04158   0.00000   0.00000   0.00000   0.00000   2.04158
   R57        2.70313  -0.00001   0.00000   0.00050   0.00050   2.70362
   R58        2.04468   0.00000   0.00000   0.00001   0.00001   2.04469
   R59        2.04480   0.00000   0.00000   0.00010   0.00010   2.04489
   R60        2.64038  -0.00002   0.00000   0.00042   0.00042   2.64080
   R61        1.96488   0.00000   0.00000   0.00012   0.00012   1.96500
    A1        2.15539   0.00000   0.00000   0.00001   0.00001   2.15540
    A2        2.22007   0.00000   0.00000  -0.00001  -0.00001   2.22006
    A3        1.90768   0.00000   0.00000   0.00000   0.00000   1.90767
    A4        1.96542   0.00001   0.00000   0.00002   0.00002   1.96544
    A5        2.08200  -0.00001   0.00000  -0.00001  -0.00001   2.08198
    A6        2.22594  -0.00001   0.00000  -0.00001  -0.00001   2.22593
    A7        1.93310   0.00001   0.00000  -0.00001  -0.00001   1.93309
    A8        2.08739  -0.00001   0.00000  -0.00002  -0.00002   2.08737
    A9        2.10026   0.00000   0.00000   0.00002   0.00002   2.10028
   A10        2.12629   0.00000   0.00000  -0.00003  -0.00003   2.12626
   A11        2.12024   0.00000   0.00000   0.00003   0.00003   2.12026
   A12        1.96429   0.00000   0.00000   0.00001   0.00001   1.96429
   A13        2.33126  -0.00003   0.00000  -0.00006  -0.00006   2.33120
   A14        1.87549   0.00005   0.00000  -0.00002  -0.00002   1.87547
   A15        1.86263  -0.00009   0.00000  -0.00004  -0.00004   1.86260
   A16        1.78294  -0.00007   0.00000   0.00006   0.00006   1.78299
   A17        1.89042  -0.00023   0.00000  -0.00010  -0.00010   1.89032
   A18        1.95558  -0.00027   0.00000   0.00010   0.00010   1.95568
   A19        2.08179   0.00060   0.00000   0.00001   0.00001   2.08180
   A20        1.81163  -0.00003   0.00000  -0.00002  -0.00002   1.81161
   A21        2.16328   0.00087   0.00000   0.00034   0.00034   2.16362
   A22        2.16387   0.00018   0.00000   0.00002   0.00002   2.16389
   A23        2.03472  -0.00008   0.00000  -0.00007  -0.00007   2.03465
   A24        1.93367   0.00031   0.00000   0.00005   0.00005   1.93372
   A25        1.78114  -0.00010   0.00000  -0.00007  -0.00007   1.78107
   A26        2.04214   0.00008   0.00000   0.00005   0.00005   2.04218
   A27        1.84522   0.00003   0.00000   0.00000   0.00000   1.84523
   A28        1.78430  -0.00036   0.00000   0.00004   0.00004   1.78434
   A29        2.24589   0.00092   0.00000   0.00023   0.00023   2.24613
   A30        1.93699   0.00000   0.00000   0.00000   0.00000   1.93699
   A31        1.91873   0.00000   0.00000   0.00005   0.00005   1.91878
   A32        1.90693   0.00000   0.00000  -0.00004  -0.00004   1.90689
   A33        1.89827   0.00000   0.00000   0.00000   0.00000   1.89827
   A34        1.90583   0.00000   0.00000   0.00000   0.00000   1.90583
   A35        1.89660   0.00000   0.00000  -0.00001  -0.00001   1.89659
   A36        2.06878   0.00000   0.00000  -0.00057  -0.00057   2.06821
   A37        1.96595   0.00000   0.00000  -0.00040  -0.00041   1.96555
   A38        2.02414   0.00000   0.00000  -0.00058  -0.00058   2.02355
   A39        2.15139  -0.00005   0.00000  -0.00010  -0.00010   2.15128
   A40        2.00543   0.00003   0.00000   0.00004   0.00004   2.00547
   A41        2.12303   0.00002   0.00000   0.00001   0.00001   2.12304
   A42        1.83185   0.00000   0.00000   0.00002   0.00002   1.83187
   A43        1.90265   0.00000   0.00000   0.00013   0.00013   1.90279
   A44        1.77297   0.00000   0.00000   0.00020   0.00020   1.77317
   A45        2.11129   0.00000   0.00000  -0.00003  -0.00003   2.11126
   A46        1.93252   0.00000   0.00000  -0.00013  -0.00013   1.93240
   A47        1.88217   0.00000   0.00000  -0.00014  -0.00014   1.88203
   A48        2.07941   0.00000   0.00000  -0.00002  -0.00002   2.07940
   A49        2.09042   0.00000   0.00000   0.00000   0.00000   2.09042
   A50        2.11312   0.00000   0.00000   0.00001   0.00001   2.11313
   A51        2.13827   0.00000   0.00000   0.00002   0.00002   2.13830
   A52        2.11670   0.00000   0.00000  -0.00002  -0.00002   2.11668
   A53        2.02778   0.00000   0.00000  -0.00001  -0.00001   2.02777
   A54        2.03993   0.00000   0.00000   0.00001   0.00001   2.03994
   A55        2.00229   0.00000   0.00000   0.00006   0.00006   2.00235
   A56        2.08107   0.00000   0.00000   0.00000   0.00000   2.08107
   A57        2.19981   0.00000   0.00000  -0.00006  -0.00006   2.19975
   A58        2.03081   0.00000   0.00000   0.00005   0.00005   2.03086
   A59        2.10850   0.00000   0.00000  -0.00004  -0.00004   2.10847
   A60        2.14368   0.00000   0.00000  -0.00002  -0.00002   2.14367
   A61        2.07785   0.00000   0.00000  -0.00001  -0.00001   2.07785
   A62        2.10760   0.00000   0.00000   0.00000   0.00000   2.10760
   A63        2.09752   0.00000   0.00000   0.00001   0.00001   2.09753
   A64        2.09275   0.00000   0.00000  -0.00003  -0.00003   2.09272
[...]
 0012749,0.00011972,-0.00006420,-0.00007330,0.00007702,-0.00004391,0.00
 000604,-0.00004660,0.00001633,-0.00002913,0.00004130,0.00001586,-0.000
 00288,0.00000871,0.00000913,0.00000134,0.00001647,0.00016509,0.0001343
 1,-0.00025871,0.00011443,0.00031728,-0.00093817,-0.00092935,0.00014176
 ,-0.00021334,0.00417642,0.00038342,0.00086950,-0.00212348,-0.00087696,
 -0.00141377,-0.00082834,-0.00022876,-0.00017839,0.00008732,0.00018553,
 -0.00010992,-0.00044568,0.00012883,0.00072558,0.00035989,0.00041621,0.
 00039652,0.00070470,-0.00032217,-0.00147540,-0.00021214,0.00029249,0.0
 0041558,-0.00000139,-0.00002914,0.00000924,0.00004337,0.00009391,0.000
 00184,-0.00000606,-0.00005330,-0.00004779,0.00005715,0.00014481,-0.000
 00588,-0.00000219,0.00000192,0.00002804,0.00002590,0.00000228,-0.00000
 448,-0.00001049,-0.00005763,0.00000633,-0.00006566,0.00005683,-0.00004
 236,0.00012098,-0.00019545,0.00006679,0.00005566,0.00003839,0.00003999
 ,-0.00001219,0.00002783,-0.00001063,0.00000155,0.00000038,0.00000050,0
 .00000196,0.00000301,0.00000443,0.00001628,0.00002523,0.00001303,-0.00
 000216,-0.00000930,-0.00001362,0.00000223,-0.00000462,-0.00000379,0.00
 022096,-0.00046329,0.00085056,-0.00775473,-0.00171713,0.00059932,-0.00
 122604,-0.00404236,-0.00250643,0.01118282,-0.01448777,0.00568977,-0.06
 930806,0.05973120,-0.00936828,0.00047140,0.00099534,0.00164150,0.00087
 295,-0.00034793,-0.00118605,-0.00004356,0.00070061,-0.00009783,0.06949
 276,0.00005204,-0.00001217,0.00001691,-0.00002017,-0.00000273,0.000003
 70,0.00000597,0.00000358,-0.00000516,-0.00004539,0.00001521,0.00000328
 ,0.00000227,-0.00000461,0.00000070,0.00000897,-0.00001146,-0.00000054,
 0.00000792,0.00000377,-0.00000352,-0.00000258,-0.00000174,-0.00000054,
 -0.00004882,-0.00008615,-0.00002547,0.00007428,0.00025567,0.00007757,-
 0.00001129,-0.00006396,-0.00000087,-0.00015069,-0.00025554,0.00001511,
 -0.00002846,-0.00021483,-0.00008037,0.00003106,0.00053149,-0.00015439,
 0.00006597,-0.00026135,0.00014866,-0.00012923,-0.00018454,0.00004271,-
 0.00002222,0.00007149,0.00000355,0.00001113,-0.00005519,0.00004422,-0.
 00000214,-0.00001596,-0.00000180,0.00000479,-0.00004474,-0.00002344,0.
 00029385,-0.00016304,0.00002990,0.00110725,0.00110393,0.00219839,-0.00
 038982,-0.00252796,-0.00157160,-0.00293533,0.00154612,-0.00425696,0.00
 066961,-0.00072734,0.00145922,0.00037424,-0.00031294,0.00076189,-0.000
 01122,0.00013520,-0.00024847,-0.00037663,0.00046842,0.00062592,0.00043
 163,-0.00181075,-0.00026837,0.00035640,-0.00102198,-0.00083767,-0.0000
 8748,0.00027563,0.00012939,-0.00006959,-0.00002091,0.00003560,0.000052
 06,0.00007500,0.00001272,0.00009277,0.00003172,-0.00000309,0.00002944,
 0.00007024,-0.00002262,0.00001529,0.00000625,0.00002218,-0.00006990,0.
 00002017,-0.00003341,0.00003845,0.00003962,-0.00000933,-0.00000839,0.0
 0006364,0.00002973,-0.00005665,-0.00032124,-0.00014936,0.00000566,0.00
 012238,-0.00010154,-0.00000459,-0.00006723,0.00004954,-0.00000565,0.00
 000852,-0.00000108,-0.00000924,0.00001369,-0.00000205,0.00003417,0.000
 02657,0.00000825,-0.00003047,-0.00000875,0.00002804,0.00000792,0.00000
 909,-0.00000109,-0.00018744,0.00045980,-0.00021022,0.00006819,0.002053
 73,0.00143662,-0.00270842,-0.00162271,0.00030166,0.00670011,-0.0101711
 2,0.00306288,0.07035863,-0.32888240,0.04825939,0.00002781,0.00003567,0
 .00018953,0.00037943,-0.00012304,-0.00043683,-0.00031847,0.00017784,-0
 .00075966,-0.07506904,0.34368649,0.00008055,-0.00001212,0.00002506,-0.
 00001941,-0.00000175,-0.00001299,-0.00001161,0.00000416,0.00000030,-0.
 00004065,0.00002794,0.00000873,-0.00000253,-0.00000460,0.00000589,0.00
 001053,-0.00001163,0.00001494,0.00000666,-0.00000911,-0.00000463,-0.00
 000683,-0.00000163,0.00000115,-0.00011470,-0.00013446,-0.00015437,0.00
 020756,0.00035508,0.00087203,-0.00000668,-0.00005444,-0.00012964,-0.00
 039358,-0.00027978,-0.00031298,0.00019076,-0.00041987,-0.00061000,-0.0
 0087187,0.00055114,0.00067758,0.00019130,-0.00015191,-0.00007819,0.000
 95142,-0.00002662,-0.00015571,-0.00012005,0.00003438,-0.00009637,0.000
 03819,-0.00003897,0.00004206,0.00017796,-0.00000423,-0.00000235,0.0000
 2823,-0.00004084,-0.00001948,-0.00121971,-0.00001409,-0.00027301,-0.00
 321357,0.00919789,-0.02109111,0.00180931,0.00332783,0.00322604,-0.0023
 8204,-0.00459096,-0.00294457,0.00049944,0.00170807,0.00116047,0.000558
 74,0.00092963,0.00071890,0.00016029,-0.00006659,-0.00019697,0.00011813
 ,0.00059451,0.00034605,0.00026753,-0.00005473,-0.00150895,-0.00056511,
 -0.00054765,0.00071818,0.00031536,0.00003255,-0.00041436,-0.00005482,0
 .00003780,0.00007201,0.00002535,0.00003980,-0.00001103,0.00011069,0.00
 007258,-0.00007880,-0.00003719,-0.00010951,0.00002252,0.00003535,0.000
 02970,-0.00003645,-0.00021183,-0.00000545,-0.00009231,0.00004104,-0.00
 010411,0.00000520,-0.00051880,0.00017765,0.00008242,0.00067092,-0.0022
 3447,-0.00028491,0.00042226,0.00075691,0.00012130,0.00026168,-0.000428
 83,0.00007905,-0.00000246,0.00000194,0.00005307,0.00002252,-0.00002044
 ,0.00003682,-0.00002975,0.00008338,0.00004811,-0.00002782,0.00009561,0
 .00012027,0.00000750,-0.00005225,0.00000812,-0.00006139,0.00031081,0.0
 0146142,0.00405145,0.00644817,0.00272333,-0.00676215,-0.00047300,0.002
 29962,0.00279711,-0.01439995,-0.00281722,-0.01698007,0.06335839,-0.022
 11274,0.00035686,-0.00081765,0.00071863,0.00034279,-0.00059704,0.00037
 618,-0.00016521,0.00044138,-0.00125798,0.01164890,-0.04871931,0.043672
 99,0.00053921,-0.00046017,0.00013940,0.00013897,0.00011254,-0.00009339
 ,-0.00068426,0.00025733,0.00008568,0.00087125,-0.00140707,-0.00025361,
 -0.00006943,0.00008322,-0.00003835,-0.00010332,0.00017875,-0.00000284,
 -0.00014837,0.00010647,0.00008593,0.00013230,0.00000139,0.00005499,-0.
 00136985,0.00238774,-0.00067286,0.00842581,-0.00585305,0.01002298,-0.0
 0442942,0.00080017,-0.00075140,-0.03017546,-0.00679327,-0.00202270,-0.
 00029980,-0.00062693,-0.00284731,-0.00063007,0.00191212,0.00152848,0.0
 0001756,-0.00057469,-0.00031074,0.00004129,-0.00021957,-0.00041983,0.0
 0049186,0.00001167,0.00077205,-0.00012386,0.00012048,-0.00029900,-0.00
 017804,-0.00004489,-0.00016828,-0.00013929,-0.00030171,-0.00044163,0.0
 0070752,-0.00015980,0.00033576,-0.00386802,0.00237138,0.02339293,-0.00
 013567,-0.00808657,-0.00470382,-0.00326870,0.00448066,-0.00212599,0.00
 122964,-0.00007671,0.00093699,0.00049271,-0.00116913,0.00008954,0.0000
 2908,-0.00000752,0.00002920,-0.00014166,-0.00015942,0.00004971,-0.0002
 6113,-0.00012931,0.00024755,0.00042995,-0.00022153,-0.00018650,-0.0000
 9564,0.00000155,0.00021690,-0.00002605,0.00005501,-0.00002202,-0.00002
 460,0.00002136,-0.00001381,-0.00015777,0.00005893,-0.00010789,0.000029
 47,0.00004905,0.00001292,-0.00003348,-0.00001242,-0.00000110,0.0017190
 8,0.00084590,-0.00028943,0.00016768,-0.00131771,0.00064456,0.00083540,
 0.00080273,-0.00215441,0.00037258,0.00333678,-0.00401909,-0.00159315,-
 0.00197217,0.00083699,-0.00160512,0.00207838,-0.00038296,0.00005896,0.
 00001132,-0.00004774,-0.00004834,-0.00002910,-0.00001568,0.00006635,0.
 00010507,0.00038408,0.00050607,-0.00026795,-0.00064577,0.00000426,0.00
 018845,-0.00003045,0.00031411,0.00004559,-0.00250741,-0.12975095,-0.00
 449251,0.00941593,-0.01946906,-0.03060898,-0.00465158,-0.07519758,-0.0
 2992488,0.00653200,-0.25155782,0.02752593,0.00789328,0.00666620,0.0321
 4606,0.00634550,-0.00654219,0.00008689,-0.00021735,-0.00091032,-0.0049
 3148,-0.00027624,-0.00554345,0.00124979,0.00706439,0.77541440,0.000920
 53,-0.00069042,0.00025696,-0.00005308,0.00012507,-0.00009969,-0.000533
 98,0.00017526,0.00002154,0.00066470,-0.00087659,-0.00011335,-0.0000817
 9,0.00004668,-0.00001421,-0.00007304,0.00014068,0.00002844,-0.00007453
 ,0.00005201,0.00005218,0.00010115,-0.00001067,0.00004759,-0.00183036,0
 .00178838,-0.00113432,0.00668182,-0.00186300,0.00858186,-0.00271617,0.
 00022577,-0.00082566,-0.01606332,0.00137761,-0.00279095,0.00009107,-0.
 00140431,-0.00377850,-0.00246591,0.00240202,0.00345989,0.00037087,-0.0
 0052812,-0.00068640,0.00251513,0.00005455,-0.00105275,0.00016267,-0.00
 008263,0.00051485,-0.00002825,0.00013561,-0.00026501,0.00028311,-0.000
 02192,-0.00016812,-0.00006378,-0.00029172,-0.00041621,-0.00305953,0.00
 026970,-0.00005492,0.00523010,-0.00602409,-0.03179674,0.00383013,0.013
 81217,0.00672379,0.00406990,-0.00857306,0.00428533,-0.00083467,0.00017
 237,-0.00214011,-0.00028864,0.00212721,-0.00062219,0.00015041,-0.00016
 285,-0.00042867,0.00008850,0.00097862,0.00032994,0.00128228,-0.0006818
 8,-0.00102125,-0.00120589,0.00038234,0.00087413,0.00036694,-0.00001648
 ,-0.00076293,0.00000961,0.00001925,0.00018983,0.00002055,0.00003373,-0
 .00000426,0.00011115,0.00032020,-0.00024684,-0.00013385,-0.00012979,-0
 .00003135,0.00005418,0.00001494,-0.00005928,-0.00255585,-0.00096106,0.
 00031207,0.00015582,0.00152276,-0.00118958,-0.00136274,-0.00115317,0.0
 0198378,-0.00140056,-0.00379889,0.00518944,0.00117151,0.00218049,-0.00
 060707,0.00261749,-0.00221674,0.00082710,-0.00000484,0.00001378,0.0001
 2836,0.00014310,-0.00007737,0.00011264,0.00011178,0.00016185,0.0002270
 4,0.00026106,0.00024510,0.00034540,0.00005201,-0.00020301,-0.00015801,
 -0.00022667,-0.00111076,0.00133928,0.01324014,-0.38364039,-0.07338680,
 -0.07859677,-0.04194674,-0.00722212,-0.01401740,-0.02653694,-0.0115066
 2,0.03560408,-0.11812832,0.01960330,-0.00191544,-0.01194247,-0.0037602
 3,-0.00283769,0.00047319,0.00022476,-0.00102530,-0.00467165,-0.0023883
 0,0.03439830,-0.00264269,-0.01478476,0.15099546,0.75729749,0.00015547,
 -0.00010638,0.00007349,-0.00009186,-0.00000347,0.00002333,0.00006013,0
 .00001589,-0.00004751,-0.00000024,0.00005949,0.00002702,0.00000641,-0.
 00001367,-0.00000726,0.00002923,-0.00002820,-0.00001929,0.00002046,0.0
 0001709,-0.00001098,-0.00000446,-0.00000858,0.00000121,-0.00007672,-0.
 00017311,0.00010945,0.00098750,0.00090805,-0.00068174,0.00032755,-0.00
 021274,0.00017007,0.00329816,0.00106350,0.00357853,-0.00037001,-0.0004
 6795,0.00023283,0.00019232,0.00074028,0.00018120,0.00002739,-0.0002697
 1,0.00007718,0.00014095,-0.00028039,-0.00008777,0.00008206,0.00013975,
 -0.00000293,-0.00001423,-0.00007218,0.00003241,-0.00003250,-0.00002531
 ,0.00000318,-0.00001337,-0.00007008,-0.00004603,-0.00089632,0.00017739
 ,0.00016979,0.01466097,-0.00423479,-0.01694421,0.00043991,0.00415538,0
 .00405352,0.00062765,-0.00142286,-0.00033616,-0.00030389,0.00019534,0.
 00048070,-0.00005480,0.00038360,0.00019441,-0.00006694,0.00002178,-0.0
 0003162,0.00005113,-0.00001776,-0.00010769,0.00039393,-0.00024846,0.00
 026606,-0.00014170,-0.00000735,0.00013153,0.00003152,0.00006883,-0.000
 10216,-0.00000395,0.00001170,0.00005237,0.00000064,0.00000470,-0.00001
 221,-0.00008837,-0.00012915,0.00003983,-0.00001670,-0.00000430,-0.0000
 0354,0.00000621,0.00001518,-0.00000097,0.00073467,0.00008018,0.0001724
 9,0.00013451,-0.00098138,-0.00007430,0.00002373,0.00017235,-0.00196270
 ,0.00016804,0.00030049,0.00014436,-0.00003830,-0.00092472,0.00013891,-
 0.00034297,0.00068009,-0.00042838,0.00002262,0.00007266,0.00000732,-0.
 00000856,-0.00000593,-0.00001767,0.00044268,0.00047412,0.00025489,0.00
 013017,-0.00007331,0.00004478,0.00002133,0.00001485,0.00002966,-0.0003
 3472,-0.00045492,-0.00259391,0.01509295,-0.06749730,-0.07828516,-0.021
 83604,-0.00959702,0.01257832,0.00025230,-0.01313873,0.00358287,0.03954
 207,-0.00349533,-0.05327326,-0.00104313,-0.00593845,-0.00031144,0.0002
 8549,-0.00079628,0.00430054,0.00002089,-0.00178762,0.00178836,-0.00533
 089,-0.00062623,-0.00440906,-0.05500628,0.11366023,0.15327947,-0.00176
 004,0.00148589,-0.00061031,-0.00000760,-0.00034451,0.00028333,0.001469
 79,-0.00056425,-0.00015255,-0.00192711,0.00272778,0.00038294,0.0001861
 8,-0.00014905,0.00008650,0.00032683,-0.00049399,0.00000745,0.00028762,
 -0.00021243,-0.00016550,-0.00028996,0.00000361,-0.00013227,0.00445003,
 -0.00620911,0.00260623,-0.02633501,0.00924361,-0.02391216,0.00907630,-
 0.00107072,0.00192349,0.02203189,-0.00074717,0.00868470,0.00032229,0.0
 0300671,0.00985057,0.00511323,-0.00658284,-0.00689896,-0.00077881,0.00
 175106,0.00118051,-0.00389598,0.00027060,0.00190102,-0.00082951,0.0001
 2077,-0.00149891,0.00015600,-0.00026056,0.00062914,-0.00024630,0.00008
 766,0.00040851,0.00026749,0.00080334,0.00112316,0.00298069,0.00018575,
 0.00081820,0.00125367,0.00322386,0.00913152,-0.00237451,-0.00560595,-0
 .00250672,0.00000389,0.00527329,-0.00017296,-0.00021853,-0.00122296,-0
 .00025460,-0.00031074,-0.00131878,-0.00034786,-0.00034724,0.00012612,0
 .00044863,0.00073912,-0.00070846,-0.00101792,-0.00056699,-0.00105001,-
 0.00012803,0.00018485,-0.00001911,0.00036981,-0.00036825,-0.00032044,0
 .00031797,0.00015001,-0.00011855,-0.00027390,-0.00004806,-0.00015706,0
 .00004750,0.00036714,-0.00026613,0.00060246,0.00007157,-0.00000195,-0.
 00000129,-0.00002132,-0.00004947,0.00006306,0.00019995,0.00021377,-0.0
 0006956,0.00020451,-0.00013211,0.00012131,0.00056054,0.00037696,-0.000
 08442,0.00041918,-0.00020841,-0.00074606,-0.00061554,-0.00029104,-0.00
 012909,-0.00051109,0.00023048,-0.00004565,-0.00001708,0.00003739,-0.00
 005400,-0.00008726,0.00017525,-0.00012544,0.00100864,0.00031545,-0.000
 13637,-0.00018078,-0.00008653,0.00004230,-0.00000558,0.00008574,0.0000
 1996,-0.00008764,0.00026093,-0.00102114,0.01042919,-0.00788845,-0.0037
 8162,0.00887122,0.00332303,0.00099446,0.00049126,0.00799723,0.00230141
 ,-0.01063227,-0.00922888,-0.00637515,-0.00001667,0.00100668,-0.0001887
 3,0.00137690,0.00025082,0.00033761,0.00028829,-0.00005705,0.00024201,0
 .00038842,0.00024233,0.00034903,-0.26111995,-0.13230532,0.00770584,0.2
 3992350,-0.00036897,0.00010646,0.00005297,-0.00014240,-0.00012536,0.00
 005017,0.00051756,-0.00012015,-0.00005168,-0.00097181,0.00089365,0.000
 13725,0.00006672,-0.00006471,0.00000941,0.00016876,-0.00019472,0.00004
 176,0.00011220,-0.00005169,-0.00008659,-0.00012114,-0.00000903,-0.0000
 4197,0.00129479,-0.00271016,0.00092449,-0.00537075,0.00444604,-0.00789
 157,0.00274358,-0.00017070,0.00078775,0.00861860,-0.00772152,0.0036369
 6,0.00018976,0.00008493,0.00275130,0.00081590,-0.00076488,-0.00263499,
 0.00000254,-0.00004518,0.00072707,-0.00111962,-0.00023941,0.00078769,-
 0.00029998,0.00013019,-0.00054159,0.00008176,-0.00018775,0.00029848,-0
 .00002505,0.00000557,0.00013511,0.00009210,0.00017649,0.00031235,0.001
 23917,0.00011750,-0.00016536,0.00120118,0.00309720,0.00459914,-0.00162
 006,-0.00405590,-0.00084544,0.00060753,0.00363840,-0.00128406,-0.00051
 526,-0.00100106,0.00005942,-0.00037411,-0.00084625,0.00033154,-0.00007
 443,-0.00000033,0.00040158,-0.00022881,-0.00130791,-0.00000379,-0.0019
 0838,0.00091111,0.00083562,0.00102477,-0.00008236,-0.00133371,-0.00007
 084,0.00019948,0.00071613,-0.00006426,0.00000351,-0.00002349,0.0000036
 4,0.00001761,-0.00001573,-0.00011888,-0.00043196,0.00041328,0.00011418
 ,0.00013125,0.00002529,-0.00004506,0.00002466,0.00004036,-0.00001292,0
 .00005175,-0.00001044,0.00015496,-0.00002640,0.00000233,0.00011348,-0.
 00004187,-0.00012070,0.00012822,-0.00025124,-0.00045129,-0.00018345,-0
 .00002681,-0.00012990,-0.00011958,0.00002828,0.00003005,-0.00000741,0.
 00003049,-0.00001940,-0.00002574,0.00005487,-0.00002185,0.00026476,0.0
 0032393,0.00019822,-0.00006216,-0.00002434,0.00004191,0.00001088,0.000
 03442,0.00000515,-0.00006754,0.00013639,-0.00054601,-0.02584768,-0.014
 94284,0.00058184,0.00378048,-0.00461669,-0.00193717,0.00693866,0.00127
 163,-0.00082793,0.00720415,0.01613019,0.00169623,0.00030223,0.00081762
 ,0.00071696,-0.00079453,0.00029328,-0.00033566,0.00057498,0.00140369,-
 0.00002248,-0.00007201,0.00032820,0.00059546,-0.13257981,-0.16616076,-
 0.01031923,0.13484535,0.17133329,0.00002717,0.00007918,-0.00006329,0.0
 0010897,0.00002165,-0.00004496,-0.00019166,0.00002505,0.00006122,0.000
 02484,-0.00025733,-0.00002099,-0.00002513,0.00002280,0.00001005,-0.000
 05460,0.00005511,0.00002487,-0.00004042,-0.00001273,0.00001812,0.00001
 116,0.00000913,0.00000215,-0.00055090,0.00065448,-0.00059902,-0.002808
 98,-0.00165384,0.00334901,-0.00112900,0.00043464,-0.00051213,0.0016631
 2,0.00068348,-0.00780036,0.00058021,0.00026676,-0.00164891,-0.00156634
 ,-0.00038469,0.00009237,0.00017471,0.00007284,-0.00015202,0.00067906,0
 .00028614,0.00019189,-0.00022360,-0.00007957,-0.00010223,0.00005435,0.
 00000965,0.00003109,0.00021037,0.00001843,-0.00000138,0.00004554,0.000
 01426,0.00002240,0.00021119,-0.00026586,-0.00071159,0.00065714,0.00076
 826,0.00152758,-0.00114310,-0.00014543,0.00009273,0.00024206,-0.001141
 01,0.00014052,-0.00010940,0.00024255,-0.00012224,0.00001306,0.00022881
 ,-0.00000020,0.00024207,-0.00015879,-0.00020548,-0.00026008,0.00051251
 ,0.00077217,-0.00016811,0.00015446,-0.00071268,-0.00010686,-0.00027411
 ,-0.00008931,0.00023421,0.00001440,-0.00011102,-0.00009831,-0.00001737
 ,0.00008613,0.00002196,0.00004524,0.00000717,0.00016459,0.00045951,-0.
 00026818,-0.00000627,-0.00002524,0.00000704,0.00000345,-0.00000285,-0.
 00003304,0.00000133,-0.00002534,-0.00002696,-0.00025881,0.00003932,0.0
 0002461,0.00051798,0.00033786,0.00018359,0.00022644,0.00006038,-0.0002
 4618,-0.00003906,0.00002743,0.00000041,-0.00006213,-0.00004346,0.00004
 104,-0.00001993,-0.00004851,0.00000696,0.00000756,0.00000845,0.0000116
 6,-0.00008050,0.00001994,-0.00056300,-0.00005074,-0.00002743,-0.000009
 55,-0.00001357,-0.00000865,0.00000762,-0.00002562,0.00006034,-0.000056
 97,-0.00853533,-0.00409062,-0.00093160,0.00106111,-0.00337100,0.003559
 26,0.00031958,-0.00049189,0.00077052,0.00393237,0.00559052,-0.00620601
 ,-0.00012151,0.00063394,-0.00309781,-0.00044036,-0.00038443,0.00143011
 ,0.00008841,-0.00042177,0.00224254,0.00014598,-0.00044226,-0.00061228,
 0.00860950,-0.00580231,-0.02642217,-0.00214929,0.00771893,0.03665671\\
 -0.00000044,0.00000025,-0.00000239,-0.00000068,-0.00000116,-0.00000138
 ,0.00000019,-0.00000020,-0.00000015,-0.00000011,0.00000040,0.00000080,
 -0.00000082,-0.00000145,-0.00000254,-0.00000076,0.00000023,-0.00000393
 ,0.00000023,0.00000197,0.00000031,0.00000025,-0.00000188,0.00000097,-0
 .00000004,0.00000122,-0.00000168,0.00000039,0.00000142,0.00000064,0.00
 000058,0.00000118,0.00000153,-0.00000050,0.00000099,-0.00000031,-0.000
 00010,-0.00000088,0.00000077,0.00000033,-0.00000231,0.00000308,0.00000
 043,-0.00000071,0.00000320,-0.00000016,-0.00000337,0.00000150,-0.00000
 041,-0.00000409,0.00000235,-0.00000056,-0.00000498,0.00000170,-0.00000
 017,-0.00000391,0.00000297,0.00000006,-0.00000498,0.00000369,-0.000000
 63,-0.00000113,0.00000092,-0.00000030,-0.00000008,-0.00000155,0.000000
 43,-0.00000089,0.00000059,0.00000058,-0.00000019,0.00000249,0.00000067
 ,0.00000114,0.00000185,0.00000028,-0.00000172,0.00000362,0.00000173,0.
 00000252,0.00000594,0.00000132,0.00000289,0.00000406,0.00000146,0.0000
 0234,0.00000314,0.00000094,0.00000061,0.00000408,0.00000132,0.00000042
 ,0.00000560,0.00000152,0.00000121,0.00000662,0.00000195,0.00000317,0.0
 0000641,0.00000140,0.00000394,0.00000327,0.00000095,-0.00000087,0.0000
 0615,0.00000179,0.00000083,0.00000804,-0.00000163,-0.00000280,-0.00000
 557,-0.00000155,-0.00000304,-0.00000386,-0.00000092,-0.00000147,-0.000
 00254,-0.00000046,-0.00000085,-0.00000178,-0.00000104,-0.00000112,-0.0
 0000418,-0.00000148,-0.00000216,-0.00000553,-0.00000202,-0.00000338,-0
 .00000667,-0.00000145,-0.00000308,-0.00000401,-0.00000007,-0.00000142,
 -0.00000098,-0.00000087,-0.00000052,-0.00000430,-0.00000178,-0.0000021
 6,-0.00000664,-0.00000025,0.00000010,-0.00000089,-0.00000026,0.0000028
 2,-0.00000327,-0.00000017,0.00000389,-0.00000362,0.00000026,0.00000253
 ,-0.00000379,0.00000047,0.00000292,-0.00000091,-0.00000020,0.00000297,
 -0.00000346,-0.00000049,0.00000368,-0.00000556,-0.00000004,0.00000333,
 -0.00000312,0.00000035,0.00000255,-0.00000033,-0.00000029,0.00000255,-
 0.00000255,0.00000078,0.00000275,0.00000119\\\@


  DISAPPOINTMENT IS THE NURSE OF WISDOM.               
                              SIR BOYLE ROCHE                 
 Job cpu time:       0 days 14 hours 38 minutes 22.7 seconds.
 File lengths (MBytes):  RWF=   2999 Int=      0 D2E=      0 Chk=     38 Scr=      1
 Normal termination of Gaussian 09 at Tue Mar  7 22:22:49 2017.
