 Entering Gaussian System, Link 0=/usr/local/shared/gaussian/em64t/09-D01/g09/g09
 Initial command:
 /usr/local/shared/gaussian/em64t/09-D01/g09/l1.exe "/scratch/ab2144/ModelCatalyst-8BindtoN-2-chkp-TS/Gau-3637.inp" -scrdir="/scratch/ab2144/ModelCatalyst-8BindtoN-2-chkp-TS/"
 Entering Link 1 = /usr/local/shared/gaussian/em64t/09-D01/g09/l1.exe PID=      3638.
  
 Copyright (c) 1988,1990,1992,1993,1995,1998,2003,2009,2013,
            Gaussian, Inc.  All Rights Reserved.
  
 This is part of the Gaussian(R) 09 program.  It is based on
 the Gaussian(R) 03 system (copyright 2003, Gaussian, Inc.),
 the Gaussian(R) 98 system (copyright 1998, Gaussian, Inc.),
 the Gaussian(R) 94 system (copyright 1995, Gaussian, Inc.),
 the Gaussian 92(TM) system (copyright 1992, Gaussian, Inc.),
 the Gaussian 90(TM) system (copyright 1990, Gaussian, Inc.),
 the Gaussian 88(TM) system (copyright 1988, Gaussian, Inc.),
 the Gaussian 86(TM) system (copyright 1986, Carnegie Mellon
 University), and the Gaussian 82(TM) system (copyright 1983,
 Carnegie Mellon University). Gaussian is a federally registered
 trademark of Gaussian, Inc.
  
 This software contains proprietary and confidential information,
 including trade secrets, belonging to Gaussian, Inc.
  
 This software is provided under written license and may be
 used, copied, transmitted, or stored only in accord with that
 written license.
  
 The following legend is applicable only to US Government
 contracts under FAR:
  
                    RESTRICTED RIGHTS LEGEND
  
 Use, reproduction and disclosure by the US Government is
 subject to restrictions as set forth in subparagraphs (a)
 and (c) of the Commercial Computer Software - Restricted
 Rights clause in FAR 52.227-19.
  
 Gaussian, Inc.
 340 Quinnipiac St., Bldg. 40, Wallingford CT 06492
  
  
 ---------------------------------------------------------------
 Warning -- This program may not be used in any manner that
 competes with the business of Gaussian, Inc. or will provide
 assistance to any competitor of Gaussian, Inc.  The licensee
 of this program is prohibited from giving any competitor of
 Gaussian, Inc. access to this program.  By using this program,
 the user acknowledges that Gaussian, Inc. is engaged in the
 business of creating and licensing software in the field of
 computational chemistry and represents and warrants to the
 licensee that it is not a competitor of Gaussian, Inc. and that
 it will not use this program in any manner prohibited above.
 ---------------------------------------------------------------
  

 Cite this work as:
 Gaussian 09, Revision D.01,
 M. J. Frisch, G. W. Trucks, H. B. Schlegel, G. E. Scuseria, 
 M. A. Robb, J. R. Cheeseman, G. Scalmani, V. Barone, B. Mennucci, 
 G. A. Petersson, H. Nakatsuji, M. Caricato, X. Li, H. P. Hratchian, 
 A. F. Izmaylov, J. Bloino, G. Zheng, J. L. Sonnenberg, M. Hada, 
 M. Ehara, K. Toyota, R. Fukuda, J. Hasegawa, M. Ishida, T. Nakajima, 
 Y. Honda, O. Kitao, H. Nakai, T. Vreven, J. A. Montgomery, Jr., 
 J. E. Peralta, F. Ogliaro, M. Bearpark, J. J. Heyd, E. Brothers, 
 K. N. Kudin, V. N. Staroverov, T. Keith, R. Kobayashi, J. Normand, 
 K. Raghavachari, A. Rendell, J. C. Burant, S. S. Iyengar, J. Tomasi, 
 M. Cossi, N. Rega, J. M. Millam, M. Klene, J. E. Knox, J. B. Cross, 
 V. Bakken, C. Adamo, J. Jaramillo, R. Gomperts, R. E. Stratmann, 
 O. Yazyev, A. J. Austin, R. Cammi, C. Pomelli, J. W. Ochterski, 
 R. L. Martin, K. Morokuma, V. G. Zakrzewski, G. A. Voth, 
 P. Salvador, J. J. Dannenberg, S. Dapprich, A. D. Daniels, 
 O. Farkas, J. B. Foresman, J. V. Ortiz, J. Cioslowski, 
 and D. J. Fox, Gaussian, Inc., Wallingford CT, 2013.
 
 ******************************************
 Gaussian 09:  EM64L-G09RevD.01 24-Apr-2013
                25-Jan-2017 
 ******************************************
 %nprocshared=4
 Will use up to    4 processors via shared memory.
 %mem=812MB
 %chk=ModelCatalyst-8BindtoN-2-chkp-TS.chk
 ----------------------------------------------------------------------
 # opt=(calcfc,ts,noeigen) freq=noraman b3lyp/6-31g(d,p) geom=connectiv
 ity
 ----------------------------------------------------------------------
 1/5=1,10=4,11=1,14=-1,18=20,26=3,38=1,57=2/1,3;
 2/9=110,12=2,17=6,18=5,40=1/2;
 3/5=1,6=6,7=101,11=2,16=1,25=1,30=1,71=2,74=-5,140=1/1,2,3;
 4//1;
 5/5=2,38=5/2;
 8/6=4,10=90,11=11/1;
 11/6=1,8=1,9=11,15=111,16=1/1,2,10;
 10/6=1,13=1/2;
 6/7=2,8=2,9=2,10=2,28=1/1;
 7/10=1,18=20,25=1/1,2,3,16;
 1/5=1,10=4,11=1,14=-1,18=20,26=3/3(2);
 2/9=110/2;
 99//99;
 2/9=110/2;
 3/5=1,6=6,7=101,11=2,16=1,25=1,30=1,71=1,74=-5/1,2,3;
 4/5=5,16=3,69=1/1;
 5/5=2,38=5/2;
 7//1,2,3,16;
 1/5=1,11=1,14=-1,18=20,26=3/3(-5);
 2/9=110/2;
 6/7=2,8=2,9=2,10=2,19=2,28=1/1;
 99/9=1/99;
 -------------------
 Title Card Required
 -------------------
 Symbolic Z-matrix:
 Charge =  0 Multiplicity = 1
 C                     3.52433  -3.06397  -1.21898 
 C                     4.64697  -2.46709  -1.66546 
 C                     4.45099  -1.01424  -1.81378 
 C                     3.40347  -0.75678  -2.61061 
 H                     5.56758  -3.03794  -1.74613 
 H                     3.45712  -4.11314  -0.94715 
 H                     3.16611  -1.3652   -3.4816 
 H                     4.64424  -0.36928  -0.95899 
 O                     2.33302  -2.42499  -0.889 
 P                     1.38823  -1.14353  -1.31321 
 O                     2.31011  -0.02893  -2.12547 
 O                     0.2629   -1.63282  -2.17118 
 N                     0.84504  -0.46062   0.06867 
 S                     1.77065  -0.00301   1.32079 
 O                     3.18594   0.20893   0.98677 
 O                     1.03924   1.01337   2.08045 
 C                     1.7768   -1.49509   2.45879 
 F                     2.32287  -1.14101   3.62565 
 F                     0.52372  -1.92346   2.68478 
 F                     2.48299  -2.50416   1.9403 
 H                    -0.59956   0.42303  -0.08173 
 C                    -2.74461   0.62238  -0.23754 
 N                    -1.43507   1.05661  -0.25857 
 S                    -1.06119   2.42717  -1.2097 
 O                    -0.34793   1.97252  -2.40982 
 O                    -2.31129   3.18111  -1.34476 
 C                     1.83765   4.58496   1.46512 
 C                     0.45951   4.5473    1.69717 
 N                    -0.39657   3.91102   0.89376 
 C                     0.12687   3.29815  -0.15805 
 C                     1.47419   3.26012  -0.50432 
 C                     2.35179   3.93145   0.34871 
 H                     2.48899   5.11003   2.15579 
 H                     0.02735   5.04445   2.56204 
 H                     1.81023   2.71458  -1.37759 
 H                     3.41779   3.92856   0.14665 
 C                    -3.98957  -2.13776   2.80186 
 C                    -2.70212  -2.23653   2.27546 
 C                    -2.27915  -1.3611    1.27474 
 C                    -3.14485  -0.36693   0.79762 
 C                    -4.44131  -0.2777    1.33041 
 C                    -4.86055  -1.15337   2.32718 
 H                    -4.31271  -2.81849   3.58386 
 H                    -2.0129   -2.98665   2.64952 
 H                    -1.26775  -1.4374    0.89326 
 H                    -5.11755   0.49322   0.9703 
 H                    -5.86084  -1.06293   2.73963 
 H                    -3.43627   1.45542  -0.34189 
 C                    -3.1663   -2.39492  -1.97833 
 C                    -4.52435  -1.97881  -1.94513 
 C                    -4.51294  -0.60392  -2.00515 
 C                    -3.14299  -0.15779  -1.98718 
 H                    -2.75715  -3.39579  -1.93547 
 H                    -5.37977  -2.63485  -1.87326 
 H                    -5.36961   0.0568   -2.00092 
 H                    -2.80086   0.68516  -2.5789 
 N                    -2.37352  -1.33677  -2.06552 
 H                    -1.32351  -1.38071  -2.11289 
 
 Add virtual bond connecting atoms N23        and H21        Dist= 2.01D+00.
 Add virtual bond connecting atoms H58        and O12        Dist= 3.04D+00.
 Add virtual bond connecting atoms H21        and N13        Dist= 3.21D+00.

 GradGradGradGradGradGradGradGradGradGradGradGradGradGradGradGradGradGrad
 Berny optimization.
 Initialization pass.
                           ----------------------------
                           !    Initial Parameters    !
                           ! (Angstroms and Degrees)  !
 --------------------------                            --------------------------
 ! Name  Definition              Value          Derivative Info.                !
 --------------------------------------------------------------------------------
 ! R1    R(1,2)                  1.3476         calculate D2E/DX2 analytically  !
 ! R2    R(1,6)                  1.0859         calculate D2E/DX2 analytically  !
 ! R3    R(1,9)                  1.3915         calculate D2E/DX2 analytically  !
 ! R4    R(2,3)                  1.4735         calculate D2E/DX2 analytically  !
 ! R5    R(2,5)                  1.0862         calculate D2E/DX2 analytically  !
 ! R6    R(3,4)                  1.3411         calculate D2E/DX2 analytically  !
 ! R7    R(3,8)                  1.0881         calculate D2E/DX2 analytically  !
 ! R8    R(4,7)                  1.0886         calculate D2E/DX2 analytically  !
 ! R9    R(4,11)                 1.4002         calculate D2E/DX2 analytically  !
 ! R10   R(9,10)                 1.6476         calculate D2E/DX2 analytically  !
 ! R11   R(10,11)                1.6589         calculate D2E/DX2 analytically  !
 ! R12   R(10,12)                1.4973         calculate D2E/DX2 analytically  !
 ! R13   R(10,13)                1.6343         calculate D2E/DX2 analytically  !
 ! R14   R(12,58)                1.6074         calculate D2E/DX2 analytically  !
 ! R15   R(13,14)                1.6229         calculate D2E/DX2 analytically  !
 ! R16   R(13,21)                1.7001         calculate D2E/DX2 analytically  !
 ! R17   R(14,15)                1.4695         calculate D2E/DX2 analytically  !
 ! R18   R(14,16)                1.4646         calculate D2E/DX2 analytically  !
 ! R19   R(14,17)                1.8765         calculate D2E/DX2 analytically  !
 ! R20   R(17,18)                1.3361         calculate D2E/DX2 analytically  !
 ! R21   R(17,19)                1.3434         calculate D2E/DX2 analytically  !
 ! R22   R(17,20)                1.3363         calculate D2E/DX2 analytically  !
 ! R23   R(21,23)                1.0634         calculate D2E/DX2 analytically  !
 ! R24   R(22,23)                1.3798         calculate D2E/DX2 analytically  !
 ! R25   R(22,40)                1.4868         calculate D2E/DX2 analytically  !
 ! R26   R(22,48)                1.0878         calculate D2E/DX2 analytically  !
 ! R27   R(23,24)                1.7096         calculate D2E/DX2 analytically  !
 ! R28   R(24,25)                1.4682         calculate D2E/DX2 analytically  !
 ! R29   R(24,26)                1.4661         calculate D2E/DX2 analytically  !
 ! R30   R(24,30)                1.81           calculate D2E/DX2 analytically  !
 ! R31   R(27,28)                1.398          calculate D2E/DX2 analytically  !
 ! R32   R(27,32)                1.392          calculate D2E/DX2 analytically  !
 ! R33   R(27,33)                1.0849         calculate D2E/DX2 analytically  !
 ! R34   R(28,29)                1.3354         calculate D2E/DX2 analytically  !
 ! R35   R(28,34)                1.0872         calculate D2E/DX2 analytically  !
 ! R36   R(29,30)                1.3251         calculate D2E/DX2 analytically  !
 ! R37   R(30,31)                1.3916         calculate D2E/DX2 analytically  !
 ! R38   R(31,32)                1.3959         calculate D2E/DX2 analytically  !
 ! R39   R(31,35)                1.0831         calculate D2E/DX2 analytically  !
 ! R40   R(32,36)                1.085          calculate D2E/DX2 analytically  !
 ! R41   R(37,38)                1.3944         calculate D2E/DX2 analytically  !
 ! R42   R(37,42)                1.3975         calculate D2E/DX2 analytically  !
 ! R43   R(37,43)                1.086          calculate D2E/DX2 analytically  !
 ! R44   R(38,39)                1.3952         calculate D2E/DX2 analytically  !
 ! R45   R(38,44)                1.0852         calculate D2E/DX2 analytically  !
 ! R46   R(39,40)                1.402          calculate D2E/DX2 analytically  !
 ! R47   R(39,45)                1.0836         calculate D2E/DX2 analytically  !
 ! R48   R(40,41)                1.4045         calculate D2E/DX2 analytically  !
 ! R49   R(41,42)                1.3914         calculate D2E/DX2 analytically  !
 ! R50   R(41,46)                1.0869         calculate D2E/DX2 analytically  !
 ! R51   R(42,47)                1.0858         calculate D2E/DX2 analytically  !
 ! R52   R(49,50)                1.4208         calculate D2E/DX2 analytically  !
 ! R53   R(49,53)                1.0821         calculate D2E/DX2 analytically  !
 ! R54   R(49,57)                1.3251         calculate D2E/DX2 analytically  !
 ! R55   R(50,51)                1.3762         calculate D2E/DX2 analytically  !
 ! R56   R(50,54)                1.0804         calculate D2E/DX2 analytically  !
 ! R57   R(51,52)                1.4409         calculate D2E/DX2 analytically  !
 ! R58   R(51,55)                1.0819         calculate D2E/DX2 analytically  !
 ! R59   R(52,56)                1.0852         calculate D2E/DX2 analytically  !
 ! R60   R(52,57)                1.41           calculate D2E/DX2 analytically  !
 ! R61   R(57,58)                1.052          calculate D2E/DX2 analytically  !
 ! A1    A(2,1,6)              124.2256         calculate D2E/DX2 analytically  !
 ! A2    A(2,1,9)              126.0429         calculate D2E/DX2 analytically  !
 ! A3    A(6,1,9)              109.3484         calculate D2E/DX2 analytically  !
 ! A4    A(1,2,3)              111.0552         calculate D2E/DX2 analytically  !
 ! A5    A(1,2,5)              119.861          calculate D2E/DX2 analytically  !
 ! A6    A(3,2,5)              128.5664         calculate D2E/DX2 analytically  !
 ! A7    A(2,3,4)              110.6701         calculate D2E/DX2 analytically  !
 ! A8    A(2,3,8)              118.7987         calculate D2E/DX2 analytically  !
 ! A9    A(4,3,8)              119.4521         calculate D2E/DX2 analytically  !
 ! A10   A(3,4,7)              122.574          calculate D2E/DX2 analytically  !
 ! A11   A(3,4,11)             120.2554         calculate D2E/DX2 analytically  !
 ! A12   A(7,4,11)             113.4201         calculate D2E/DX2 analytically  !
 ! A13   A(1,9,10)             141.905          calculate D2E/DX2 analytically  !
 ! A14   A(9,10,11)            109.2672         calculate D2E/DX2 analytically  !
 ! A15   A(9,10,12)            108.9259         calculate D2E/DX2 analytically  !
 ! A16   A(9,10,13)            107.3302         calculate D2E/DX2 analytically  !
 ! A17   A(11,10,12)           110.8949         calculate D2E/DX2 analytically  !
 ! A18   A(11,10,13)           108.539          calculate D2E/DX2 analytically  !
 ! A19   A(12,10,13)           111.7929         calculate D2E/DX2 analytically  !
 ! A20   A(4,11,10)            104.7334         calculate D2E/DX2 analytically  !
 ! A21   A(10,12,58)           132.0471         calculate D2E/DX2 analytically  !
 ! A22   A(10,13,14)           125.4929         calculate D2E/DX2 analytically  !
 ! A23   A(10,13,21)           115.1383         calculate D2E/DX2 analytically  !
 ! A24   A(14,13,21)           113.9734         calculate D2E/DX2 analytically  !
 ! A25   A(13,14,15)           114.4928         calculate D2E/DX2 analytically  !
 ! A26   A(13,14,16)           108.121          calculate D2E/DX2 analytically  !
 ! A27   A(13,14,17)           104.2144         calculate D2E/DX2 analytically  !
 ! A28   A(15,14,16)           119.9178         calculate D2E/DX2 analytically  !
 ! A29   A(15,14,17)           104.4395         calculate D2E/DX2 analytically  !
 ! A30   A(16,14,17)           103.8203         calculate D2E/DX2 analytically  !
 ! A31   A(14,17,18)           108.678          calculate D2E/DX2 analytically  !
 ! A32   A(14,17,19)           110.6397         calculate D2E/DX2 analytically  !
 ! A33   A(14,17,20)           111.5212         calculate D2E/DX2 analytically  !
 ! A34   A(18,17,19)           108.5908         calculate D2E/DX2 analytically  !
 ! A35   A(18,17,20)           108.8437         calculate D2E/DX2 analytically  !
 ! A36   A(19,17,20)           108.5066         calculate D2E/DX2 analytically  !
 ! A37   A(23,22,40)           118.3923         calculate D2E/DX2 analytically  !
 ! A38   A(23,22,48)           111.1614         calculate D2E/DX2 analytically  !
 ! A39   A(40,22,48)           113.9042         calculate D2E/DX2 analytically  !
 ! A40   A(21,23,22)           123.7556         calculate D2E/DX2 analytically  !
 ! A41   A(21,23,24)           113.4747         calculate D2E/DX2 analytically  !
 ! A42   A(22,23,24)           117.9248         calculate D2E/DX2 analytically  !
 ! A43   A(23,24,25)           108.2243         calculate D2E/DX2 analytically  !
 ! A44   A(23,24,26)           106.0836         calculate D2E/DX2 analytically  !
 ! A45   A(23,24,30)           101.8921         calculate D2E/DX2 analytically  !
 ! A46   A(25,24,26)           119.8785         calculate D2E/DX2 analytically  !
 ! A47   A(25,24,30)           107.7619         calculate D2E/DX2 analytically  !
 ! A48   A(26,24,30)           111.4539         calculate D2E/DX2 analytically  !
 ! A49   A(28,27,32)           118.9839         calculate D2E/DX2 analytically  !
 ! A50   A(28,27,33)           119.9468         calculate D2E/DX2 analytically  !
 ! A51   A(32,27,33)           121.0667         calculate D2E/DX2 analytically  !
 ! A52   A(27,28,29)           123.0193         calculate D2E/DX2 analytically  !
 ! A53   A(27,28,34)           120.7694         calculate D2E/DX2 analytically  !
 ! A54   A(29,28,34)           116.2112         calculate D2E/DX2 analytically  !
 ! A55   A(28,29,30)           116.4042         calculate D2E/DX2 analytically  !
 ! A56   A(24,30,29)           115.1172         calculate D2E/DX2 analytically  !
 ! A57   A(24,30,31)           118.5398         calculate D2E/DX2 analytically  !
 ! A58   A(29,30,31)           126.3405         calculate D2E/DX2 analytically  !
 ! A59   A(30,31,32)           116.3269         calculate D2E/DX2 analytically  !
 ! A60   A(30,31,35)           120.9815         calculate D2E/DX2 analytically  !
 ! A61   A(32,31,35)           122.6748         calculate D2E/DX2 analytically  !
 ! A62   A(27,32,31)           118.9247         calculate D2E/DX2 analytically  !
 ! A63   A(27,32,36)           120.8963         calculate D2E/DX2 analytically  !
 ! A64   A(31,32,36)           120.1737         calculate D2E/DX2 analytically  !
 ! A65   A(38,37,42)           119.8092         calculate D2E/DX2 analytically  !
 ! A66   A(38,37,43)           120.1436         calculate D2E/DX2 analytically  !
 ! A67   A(42,37,43)           120.0455         calculate D2E/DX2 analytically  !
 ! A68   A(37,38,39)           120.4119         calculate D2E/DX2 analytically  !
 ! A69   A(37,38,44)           120.347          calculate D2E/DX2 analytically  !
 ! A70   A(39,38,44)           119.2355         calculate D2E/DX2 analytically  !
 ! A71   A(38,39,40)           120.1216         calculate D2E/DX2 analytically  !
 ! A72   A(38,39,45)           119.4236         calculate D2E/DX2 analytically  !
 ! A73   A(40,39,45)           120.4274         calculate D2E/DX2 analytically  !
 ! A74   A(22,40,39)           122.8601         calculate D2E/DX2 analytically  !
 ! A75   A(22,40,41)           118.0563         calculate D2E/DX2 analytically  !
 ! A76   A(39,40,41)           119.0741         calculate D2E/DX2 analytically  !
 ! A77   A(40,41,42)           120.6564         calculate D2E/DX2 analytically  !
 ! A78   A(40,41,46)           119.5837         calculate D2E/DX2 analytically  !
 ! A79   A(42,41,46)           119.7532         calculate D2E/DX2 analytically  !
 ! A80   A(37,42,41)           119.9232         calculate D2E/DX2 analytically  !
 ! A81   A(37,42,47)           120.2541         calculate D2E/DX2 analytically  !
 ! A82   A(41,42,47)           119.8204         calculate D2E/DX2 analytically  !
 ! A83   A(50,49,53)           129.1518         calculate D2E/DX2 analytically  !
 ! A84   A(50,49,57)           109.8495         calculate D2E/DX2 analytically  !
 ! A85   A(53,49,57)           120.997          calculate D2E/DX2 analytically  !
 ! A86   A(49,50,51)           106.4777         calculate D2E/DX2 analytically  !
 ! A87   A(49,50,54)           125.487          calculate D2E/DX2 analytically  !
 ! A88   A(51,50,54)           128.0307         calculate D2E/DX2 analytically  !
 ! A89   A(50,51,52)           108.4612         calculate D2E/DX2 analytically  !
 ! A90   A(50,51,55)           127.112          calculate D2E/DX2 analytically  !
 ! A91   A(52,51,55)           124.3135         calculate D2E/DX2 analytically  !
 ! A92   A(51,52,56)           122.2382         calculate D2E/DX2 analytically  !
 ! A93   A(51,52,57)           105.0268         calculate D2E/DX2 analytically  !
 ! A94   A(56,52,57)           116.5588         calculate D2E/DX2 analytically  !
 ! A95   A(49,57,52)           109.7274         calculate D2E/DX2 analytically  !
 ! A96   A(49,57,58)           124.5259         calculate D2E/DX2 analytically  !
 ! A97   A(52,57,58)           125.5991         calculate D2E/DX2 analytically  !
 ! A98   L(13,21,23,27,-1)     176.0143         calculate D2E/DX2 analytically  !
 ! A99   L(12,58,57,19,-1)     179.0158         calculate D2E/DX2 analytically  !
 ! A100  L(13,21,23,27,-2)     173.9541         calculate D2E/DX2 analytically  !
 ! A101  L(12,58,57,19,-2)     186.9577         calculate D2E/DX2 analytically  !
 ! D1    D(6,1,2,3)           -174.1008         calculate D2E/DX2 analytically  !
 ! D2    D(6,1,2,5)             -1.6611         calculate D2E/DX2 analytically  !
 ! D3    D(9,1,2,3)             -1.9735         calculate D2E/DX2 analytically  !
 ! D4    D(9,1,2,5)            170.4662         calculate D2E/DX2 analytically  !
 ! D5    D(2,1,9,10)            33.6771         calculate D2E/DX2 analytically  !
 ! D6    D(6,1,9,10)          -153.2169         calculate D2E/DX2 analytically  !
 ! D7    D(1,2,3,4)            -55.4141         calculate D2E/DX2 analytically  !
 ! D8    D(1,2,3,8)             88.3986         calculate D2E/DX2 analytically  !
 ! D9    D(5,2,3,4)            132.9771         calculate D2E/DX2 analytically  !
 ! D10   D(5,2,3,8)            -83.2101         calculate D2E/DX2 analytically  !
 ! D11   D(2,3,4,7)            -36.773          calculate D2E/DX2 analytically  !
 ! D12   D(2,3,4,11)           119.9651         calculate D2E/DX2 analytically  !
 ! D13   D(8,3,4,7)            179.6818         calculate D2E/DX2 analytically  !
 ! D14   D(8,3,4,11)           -23.58           calculate D2E/DX2 analytically  !
 ! D15   D(3,4,11,10)          -82.1573         calculate D2E/DX2 analytically  !
 ! D16   D(7,4,11,10)           76.5772         calculate D2E/DX2 analytically  !
 ! D17   D(1,9,10,11)          -21.1936         calculate D2E/DX2 analytically  !
 ! D18   D(1,9,10,12)          100.0893         calculate D2E/DX2 analytically  !
 ! D19   D(1,9,10,13)         -138.7039         calculate D2E/DX2 analytically  !
 ! D20   D(9,10,11,4)           21.9513         calculate D2E/DX2 analytically  !
 ! D21   D(12,10,11,4)         -98.1296         calculate D2E/DX2 analytically  !
 ! D22   D(13,10,11,4)         138.6979         calculate D2E/DX2 analytically  !
 ! D23   D(9,10,12,58)         131.056          calculate D2E/DX2 analytically  !
 ! D24   D(11,10,12,58)       -108.66           calculate D2E/DX2 analytically  !
 ! D25   D(13,10,12,58)         12.6162         calculate D2E/DX2 analytically  !
 ! D26   D(9,10,13,14)          51.9234         calculate D2E/DX2 analytically  !
 ! D27   D(9,10,13,21)        -155.7169         calculate D2E/DX2 analytically  !
 ! D28   D(11,10,13,14)        -66.0609         calculate D2E/DX2 analytically  !
 ! D29   D(11,10,13,21)         86.2988         calculate D2E/DX2 analytically  !
 ! D30   D(12,10,13,14)        171.309          calculate D2E/DX2 analytically  !
 ! D31   D(12,10,13,21)        -36.3313         calculate D2E/DX2 analytically  !
 ! D32   D(10,12,57,49)       -121.1827         calculate D2E/DX2 analytically  !
 ! D33   D(10,12,57,52)         53.5338         calculate D2E/DX2 analytically  !
 ! D34   D(10,13,14,15)         20.7809         calculate D2E/DX2 analytically  !
 ! D35   D(10,13,14,16)        157.3137         calculate D2E/DX2 analytically  !
 ! D36   D(10,13,14,17)        -92.6766         calculate D2E/DX2 analytically  !
 ! D37   D(21,13,14,15)       -131.8559         calculate D2E/DX2 analytically  !
 ! D38   D(21,13,14,16)          4.6769         calculate D2E/DX2 analytically  !
 ! D39   D(21,13,14,17)        114.6866         calculate D2E/DX2 analytically  !
 ! D40   D(10,13,23,22)         86.0738         calculate D2E/DX2 analytically  !
 ! D41   D(10,13,23,24)        -66.8449         calculate D2E/DX2 analytically  !
 ! D42   D(14,13,23,22)       -120.7079         calculate D2E/DX2 analytically  !
 ! D43   D(14,13,23,24)         86.3734         calculate D2E/DX2 analytically  !
 ! D44   D(13,14,17,18)       -169.5073         calculate D2E/DX2 analytically  !
 ! D45   D(13,14,17,19)        -50.3673         calculate D2E/DX2 analytically  !
 ! D46   D(13,14,17,20)         70.5057         calculate D2E/DX2 analytically  !
 ! D47   D(15,14,17,18)         70.0386         calculate D2E/DX2 analytically  !
 ! D48   D(15,14,17,19)       -170.8214         calculate D2E/DX2 analytically  !
 ! D49   D(15,14,17,20)        -49.9483         calculate D2E/DX2 analytically  !
 ! D50   D(16,14,17,18)        -56.3831         calculate D2E/DX2 analytically  !
 ! D51   D(16,14,17,19)         62.757          calculate D2E/DX2 analytically  !
 ! D52   D(16,14,17,20)       -176.37           calculate D2E/DX2 analytically  !
 ! D53   D(40,22,23,21)         39.4282         calculate D2E/DX2 analytically  !
 ! D54   D(40,22,23,24)       -166.8724         calculate D2E/DX2 analytically  !
 ! D55   D(48,22,23,21)        174.1091         calculate D2E/DX2 analytically  !
 ! D56   D(48,22,23,24)        -32.1914         calculate D2E/DX2 analytically  !
 ! D57   D(23,22,40,39)        -33.5711         calculate D2E/DX2 analytically  !
 ! D58   D(23,22,40,41)        145.292          calculate D2E/DX2 analytically  !
 ! D59   D(48,22,40,39)       -167.0774         calculate D2E/DX2 analytically  !
 ! D60   D(48,22,40,41)         11.7857         calculate D2E/DX2 analytically  !
 ! D61   D(21,23,24,25)         50.4431         calculate D2E/DX2 analytically  !
 ! D62   D(21,23,24,26)       -179.7079         calculate D2E/DX2 analytically  !
 ! D63   D(21,23,24,30)        -62.9823         calculate D2E/DX2 analytically  !
 ! D64   D(22,23,24,25)       -105.8772         calculate D2E/DX2 analytically  !
 ! D65   D(22,23,24,26)         23.9718         calculate D2E/DX2 analytically  !
 ! D66   D(22,23,24,30)        140.6974         calculate D2E/DX2 analytically  !
 ! D67   D(23,24,30,29)        -73.9689         calculate D2E/DX2 analytically  !
 ! D68   D(23,24,30,31)        105.504          calculate D2E/DX2 analytically  !
 ! D69   D(25,24,30,29)        172.2619         calculate D2E/DX2 analytically  !
 ! D70   D(25,24,30,31)         -8.2651         calculate D2E/DX2 analytically  !
 ! D71   D(26,24,30,29)         38.796          calculate D2E/DX2 analytically  !
 ! D72   D(26,24,30,31)       -141.7311         calculate D2E/DX2 analytically  !
 ! D73   D(32,27,28,29)         -0.0572         calculate D2E/DX2 analytically  !
 ! D74   D(32,27,28,34)        179.7703         calculate D2E/DX2 analytically  !
 ! D75   D(33,27,28,29)       -179.4713         calculate D2E/DX2 analytically  !
 ! D76   D(33,27,28,34)          0.3562         calculate D2E/DX2 analytically  !
 ! D77   D(28,27,32,31)          0.0542         calculate D2E/DX2 analytically  !
 ! D78   D(28,27,32,36)       -179.1077         calculate D2E/DX2 analytically  !
 ! D79   D(33,27,32,31)        179.4615         calculate D2E/DX2 analytically  !
 ! D80   D(33,27,32,36)          0.2996         calculate D2E/DX2 analytically  !
 ! D81   D(27,28,29,30)          0.1553         calculate D2E/DX2 analytically  !
 ! D82   D(34,28,29,30)       -179.6795         calculate D2E/DX2 analytically  !
 ! D83   D(28,29,30,24)        179.1528         calculate D2E/DX2 analytically  !
 ! D84   D(28,29,30,31)         -0.2724         calculate D2E/DX2 analytically  !
 ! D85   D(24,30,31,32)       -179.1359         calculate D2E/DX2 analytically  !
 ! D86   D(24,30,31,35)         -0.5869         calculate D2E/DX2 analytically  !
 ! D87   D(29,30,31,32)          0.2717         calculate D2E/DX2 analytically  !
 ! D88   D(29,30,31,35)        178.8206         calculate D2E/DX2 analytically  !
 ! D89   D(30,31,32,27)         -0.1469         calculate D2E/DX2 analytically  !
 ! D90   D(30,31,32,36)        179.0212         calculate D2E/DX2 analytically  !
 ! D91   D(35,31,32,27)       -178.669          calculate D2E/DX2 analytically  !
 ! D92   D(35,31,32,36)          0.4991         calculate D2E/DX2 analytically  !
 ! D93   D(42,37,38,39)         -0.1907         calculate D2E/DX2 analytically  !
 ! D94   D(42,37,38,44)        178.9504         calculate D2E/DX2 analytically  !
 ! D95   D(43,37,38,39)       -179.7191         calculate D2E/DX2 analytically  !
 ! D96   D(43,37,38,44)         -0.578          calculate D2E/DX2 analytically  !
 ! D97   D(38,37,42,41)          0.1115         calculate D2E/DX2 analytically  !
 ! D98   D(38,37,42,47)       -179.3232         calculate D2E/DX2 analytically  !
 ! D99   D(43,37,42,41)        179.6403         calculate D2E/DX2 analytically  !
 ! D100  D(43,37,42,47)          0.2056         calculate D2E/DX2 analytically  !
 ! D101  D(37,38,39,40)          0.487          calculate D2E/DX2 analytically  !
 ! D102  D(37,38,39,45)        178.5945         calculate D2E/DX2 analytically  !
 ! D103  D(44,38,39,40)       -178.6636         calculate D2E/DX2 analytically  !
 ! D104  D(44,38,39,45)         -0.5562         calculate D2E/DX2 analytically  !
 ! D105  D(38,39,40,22)        178.1579         calculate D2E/DX2 analytically  !
 ! D106  D(38,39,40,41)         -0.6942         calculate D2E/DX2 analytically  !
 ! D107  D(45,39,40,22)          0.0696         calculate D2E/DX2 analytically  !
 ! D108  D(45,39,40,41)       -178.7824         calculate D2E/DX2 analytically  !
 ! D109  D(22,40,41,42)       -178.2881         calculate D2E/DX2 analytically  !
 ! D110  D(22,40,41,46)          0.7713         calculate D2E/DX2 analytically  !
 ! D111  D(39,40,41,42)          0.6193         calculate D2E/DX2 analytically  !
 ! D112  D(39,40,41,46)        179.6787         calculate D2E/DX2 analytically  !
 ! D113  D(40,41,42,37)         -0.3304         calculate D2E/DX2 analytically  !
 ! D114  D(40,41,42,47)        179.1068         calculate D2E/DX2 analytically  !
 ! D115  D(46,41,42,37)       -179.3882         calculate D2E/DX2 analytically  !
 ! D116  D(46,41,42,47)          0.049          calculate D2E/DX2 analytically  !
 ! D117  D(53,49,50,51)        178.9834         calculate D2E/DX2 analytically  !
 ! D118  D(53,49,50,54)         -0.2903         calculate D2E/DX2 analytically  !
 ! D119  D(57,49,50,51)         -0.5241         calculate D2E/DX2 analytically  !
 ! D120  D(57,49,50,54)       -179.7978         calculate D2E/DX2 analytically  !
 ! D121  D(50,49,57,52)          4.6868         calculate D2E/DX2 analytically  !
 ! D122  D(50,49,57,58)       -179.5232         calculate D2E/DX2 analytically  !
 ! D123  D(53,49,57,52)       -174.8676         calculate D2E/DX2 analytically  !
 ! D124  D(53,49,57,58)          0.9223         calculate D2E/DX2 analytically  !
 ! D125  D(49,50,51,52)         -3.7271         calculate D2E/DX2 analytically  !
 ! D126  D(49,50,51,55)       -179.9636         calculate D2E/DX2 analytically  !
 ! D127  D(54,50,51,52)        175.5221         calculate D2E/DX2 analytically  !
 ! D128  D(54,50,51,55)         -0.7144         calculate D2E/DX2 analytically  !
 ! D129  D(50,51,52,56)        142.141          calculate D2E/DX2 analytically  !
 ! D130  D(50,51,52,57)          6.3645         calculate D2E/DX2 analytically  !
 ! D131  D(55,51,52,56)        -41.4924         calculate D2E/DX2 analytically  !
 ! D132  D(55,51,52,57)       -177.2689         calculate D2E/DX2 analytically  !
 ! D133  D(51,52,57,49)         -6.7587         calculate D2E/DX2 analytically  !
 ! D134  D(51,52,57,58)        177.5072         calculate D2E/DX2 analytically  !
 ! D135  D(56,52,57,49)       -145.4943         calculate D2E/DX2 analytically  !
 ! D136  D(56,52,57,58)         38.7715         calculate D2E/DX2 analytically  !
 --------------------------------------------------------------------------------
 Trust Radius=3.00D-01 FncErr=1.00D-07 GrdErr=1.00D-06
 Number of steps in this run=    308 maximum allowed number of steps=    348.
 Search for a saddle point of order  1.
 GradGradGradGradGradGradGradGradGradGradGradGradGradGradGradGradGradGrad

 Stoichiometry    C21H20F3N4O7PS2
 Framework group  C1[X(C21H20F3N4O7PS2)]
 Deg. of freedom   168
 Full point group                 C1      NOp   1
 Largest Abelian subgroup         C1      NOp   1
 Largest concise Abelian subgroup C1      NOp   1
                         Standard orientation:                         
 ---------------------------------------------------------------------
 Center     Atomic      Atomic             Coordinates (Angstroms)
 Number     Number       Type             X           Y           Z
 ---------------------------------------------------------------------
      1          6           0        3.524329   -3.063967   -1.218975
      2          6           0        4.646971   -2.467090   -1.665461
      3          6           0        4.450986   -1.014238   -1.813777
      4          6           0        3.403469   -0.756778   -2.610606
      5          1           0        5.567577   -3.037935   -1.746129
      6          1           0        3.457118   -4.113136   -0.947153
      7          1           0        3.166110   -1.365198   -3.481603
      8          1           0        4.644240   -0.369278   -0.958986
      9          8           0        2.333024   -2.424989   -0.888996
     10         15           0        1.388234   -1.143533   -1.313207
     11          8           0        2.310109   -0.028929   -2.125469
     12          8           0        0.262899   -1.632823   -2.171177
     13          7           0        0.845043   -0.460620    0.068668
     14         16           0        1.770647   -0.003014    1.320787
     15          8           0        3.185941    0.208933    0.986772
     16          8           0        1.039240    1.013370    2.080451
     17          6           0        1.776804   -1.495093    2.458789
     18          9           0        2.322865   -1.141011    3.625647
     19          9           0        0.523718   -1.923460    2.684783
     20          9           0        2.482991   -2.504162    1.940302
     21          1           0       -0.599564    0.423030   -0.081728
     22          6           0       -2.744613    0.622377   -0.237539
     23          7           0       -1.435066    1.056611   -0.258567
     24         16           0       -1.061191    2.427169   -1.209700
     25          8           0       -0.347931    1.972521   -2.409823
     26          8           0       -2.311290    3.181106   -1.344762
     27          6           0        1.837645    4.584957    1.465115
     28          6           0        0.459505    4.547300    1.697174
     29          7           0       -0.396570    3.911019    0.893762
     30          6           0        0.126866    3.298154   -0.158053
     31          6           0        1.474188    3.260115   -0.504315
     32          6           0        2.351794    3.931447    0.348707
     33          1           0        2.488994    5.110030    2.155791
     34          1           0        0.027346    5.044450    2.562036
     35          1           0        1.810233    2.714582   -1.377586
     36          1           0        3.417792    3.928563    0.146654
     37          6           0       -3.989568   -2.137756    2.801861
     38          6           0       -2.702118   -2.236533    2.275456
     39          6           0       -2.279146   -1.361102    1.274744
     40          6           0       -3.144849   -0.366930    0.797617
     41          6           0       -4.441307   -0.277704    1.330414
     42          6           0       -4.860546   -1.153373    2.327182
     43          1           0       -4.312705   -2.818486    3.583858
     44          1           0       -2.012904   -2.986648    2.649516
     45          1           0       -1.267750   -1.437396    0.893256
     46          1           0       -5.117553    0.493216    0.970296
     47          1           0       -5.860843   -1.062931    2.739632
     48          1           0       -3.436269    1.455415   -0.341889
     49          6           0       -3.166304   -2.394916   -1.978330
     50          6           0       -4.524352   -1.978807   -1.945134
     51          6           0       -4.512937   -0.603923   -2.005153
     52          6           0       -3.142994   -0.157793   -1.987179
     53          1           0       -2.757154   -3.395785   -1.935473
     54          1           0       -5.379768   -2.634849   -1.873262
     55          1           0       -5.369613    0.056798   -2.000923
     56          1           0       -2.800857    0.685156   -2.578904
     57          7           0       -2.373516   -1.336768   -2.065517
     58          1           0       -1.323510   -1.380711   -2.112888
 ---------------------------------------------------------------------
 Rotational constants (GHZ):      0.1102636      0.0854929      0.0755126
 Standard basis: 6-31G(d,p) (6D, 7F)
 There are   682 symmetry adapted cartesian basis functions of A   symmetry.
 There are   682 symmetry adapted basis functions of A   symmetry.
   682 basis functions,  1276 primitive gaussians,   682 cartesian basis functions
   152 alpha electrons      152 beta electrons
       nuclear repulsion energy      5696.1870367736 Hartrees.
 NAtoms=   58 NActive=   58 NUniq=   58 SFac= 1.00D+00 NAtFMM=   60 NAOKFM=F Big=F
 Integral buffers will be    131072 words long.
 Raffenetti 2 integral format.
 Two-electron integral symmetry is turned on.
 One-electron integrals computed using PRISM.
 NBasis=   682 RedAO= T EigKep=  4.36D-04  NBF=   682
 NBsUse=   682 1.00D-06 EigRej= -1.00D+00 NBFU=   682
 ExpMin= 9.98D-02 ExpMax= 2.19D+04 ExpMxC= 3.30D+03 IAcc=2 IRadAn=         4 AccDes= 0.00D+00
 Harris functional with IExCor=  402 and IRadAn=       4 diagonalized for initial guess.
 HarFok:  IExCor=  402 AccDes= 0.00D+00 IRadAn=         4 IDoV= 1 UseB2=F ITyADJ=14
 ICtDFT=  3500011 ScaDFX=  1.000000  1.000000  1.000000  1.000000
 FoFCou: FMM=F IPFlag=           0 FMFlag=      100000 FMFlg1=           0
         NFxFlg=           0 DoJE=T BraDBF=F KetDBF=T FulRan=T
         wScrn=  0.000000 ICntrl=     500 IOpCl=  0 I1Cent=   200000004 NGrid=           0
         NMat0=    1 NMatS0=      1 NMatT0=    0 NMatD0=    1 NMtDS0=    0 NMtDT0=    0
 Petite list used in FoFCou.
 Requested convergence on RMS density matrix=1.00D-08 within 128 cycles.
 Requested convergence on MAX density matrix=1.00D-06.
 Requested convergence on             energy=1.00D-06.
 No special actions if energy rises.
 Integral accuracy reduced to 1.0D-05 until final iterations.
 Initial convergence to 1.0D-05 achieved.  Increase integral accuracy.
 SCF Done:  E(RB3LYP) =  -2994.90437414     A.U. after   16 cycles
            NFock= 16  Conv=0.40D-08     -V/T= 2.0070
 DoSCS=F DFT=T ScalE2(SS,OS)=  1.000000  1.000000
 Range of M.O.s used for correlation:     1   682
 NBasis=   682 NAE=   152 NBE=   152 NFC=     0 NFV=     0
 NROrb=    682 NOA=   152 NOB=   152 NVA=   530 NVB=   530
 PrsmSu:  requested number of processors reduced to:   2 ShMem   1 Linda.
 Symmetrizing basis deriv contribution to polar:
 IMax=3 JMax=2 DiffMx= 0.00D+00
 G2DrvN: will do    20 centers at a time, making    3 passes.
 Calling FoFCou, ICntrl=  3107 FMM=F I1Cent=   0 AccDes= 0.00D+00.
 Calling FoFCou, ICntrl=  3107 FMM=F I1Cent=   0 AccDes= 0.00D+00.
 Calling FoFCou, ICntrl=  3107 FMM=F I1Cent=   0 AccDes= 0.00D+00.
 End of G2Drv F.D. properties file   721 does not exist.
 End of G2Drv F.D. properties file   722 does not exist.
 End of G2Drv F.D. properties file   788 does not exist.
          IDoAtm=11111111111111111111111111111111111111111111111111
          IDoAtm=11111111
          Differentiating once with respect to nuclear coordinates.
          There are   177 degrees of freedom in the 1st order CPHF.  IDoFFX=6 NUNeed=     0.
    174 vectors produced by pass  0 Test12= 8.06D-14 1.00D-09 XBig12= 2.81D-01 1.63D-01.
 AX will form    60 AO Fock derivatives at one time.
    174 vectors produced by pass  1 Test12= 8.06D-14 1.00D-09 XBig12= 5.34D-02 5.96D-02.
    174 vectors produced by pass  2 Test12= 8.06D-14 1.00D-09 XBig12= 5.46D-04 3.24D-03.
    171 vectors produced by pass  3 Test12= 8.06D-14 1.00D-09 XBig12= 3.04D-06 1.98D-04.
    171 vectors produced by pass  4 Test12= 8.06D-14 1.00D-09 XBig12= 9.40D-09 8.56D-06.
    165 vectors produced by pass  5 Test12= 8.06D-14 1.00D-09 XBig12= 1.65D-11 3.98D-07.
 PrRfSu:  requested number of processors reduced to:   3 ShMem   1 Linda.
 PrRfSu:  requested number of processors reduced to:   3 ShMem   1 Linda.
     44 vectors produced by pass  6 Test12= 8.06D-14 1.00D-09 XBig12= 1.90D-14 1.54D-08.
 InvSVY:  IOpt=1 It=  1 EMax= 1.22D-15
 Solved reduced A of dimension  1073 with   177 vectors.
 End of Minotr F.D. properties file   721 does not exist.
 End of Minotr F.D. properties file   722 does not exist.
 End of Minotr F.D. properties file   788 does not exist.

 **********************************************************************

            Population analysis using the SCF density.

 **********************************************************************

 Orbital symmetries:
       Occupied  (A) (A) (A) (A) (A) (A) (A) (A) (A) (A) (A) (A)
                 (A) (A) (A) (A) (A) (A) (A) (A) (A) (A) (A) (A)
                 (A) (A) (A) (A) (A) (A) (A) (A) (A) (A) (A) (A)
                 (A) (A) (A) (A) (A) (A) (A) (A) (A) (A) (A) (A)
                 (A) (A) (A) (A) (A) (A) (A) (A) (A) (A) (A) (A)
                 (A) (A) (A) (A) (A) (A) (A) (A) (A) (A) (A) (A)
                 (A) (A) (A) (A) (A) (A) (A) (A) (A) (A) (A) (A)
                 (A) (A) (A) (A) (A) (A) (A) (A) (A) (A) (A) (A)
                 (A) (A) (A) (A) (A) (A) (A) (A) (A) (A) (A) (A)
                 (A) (A) (A) (A) (A) (A) (A) (A) (A) (A) (A) (A)
                 (A) (A) (A) (A) (A) (A) (A) (A) (A) (A) (A) (A)
                 (A) (A) (A) (A) (A) (A) (A) (A) (A) (A) (A) (A)
                 (A) (A) (A) (A) (A) (A) (A) (A)
       Virtual   (A) (A) (A) (A) (A) (A) (A) (A) (A) (A) (A) (A)
                 (A) (A) (A) (A) (A) (A) (A) (A) (A) (A) (A) (A)
                 (A) (A) (A) (A) (A) (A) (A) (A) (A) (A) (A) (A)
                 (A) (A) (A) (A) (A) (A) (A) (A) (A) (A) (A) (A)
                 (A) (A) (A) (A) (A) (A) (A) (A) (A) (A) (A) (A)
                 (A) (A) (A) (A) (A) (A) (A) (A) (A) (A) (A) (A)
                 (A) (A) (A) (A) (A) (A) (A) (A) (A) (A) (A) (A)
                 (A) (A) (A) (A) (A) (A) (A) (A) (A) (A) (A) (A)
                 (A) (A) (A) (A) (A) (A) (A) (A) (A) (A) (A) (A)
                 (A) (A) (A) (A) (A) (A) (A) (A) (A) (A) (A) (A)
                 (A) (A) (A) (A) (A) (A) (A) (A) (A) (A) (A) (A)
                 (A) (A) (A) (A) (A) (A) (A) (A) (A) (A) (A) (A)
                 (A) (A) (A) (A) (A) (A) (A) (A) (A) (A) (A) (A)
                 (A) (A) (A) (A) (A) (A) (A) (A) (A) (A) (A) (A)
                 (A) (A) (A) (A) (A) (A) (A) (A) (A) (A) (A) (A)
                 (A) (A) (A) (A) (A) (A) (A) (A) (A) (A) (A) (A)
                 (A) (A) (A) (A) (A) (A) (A) (A) (A) (A) (A) (A)
                 (A) (A) (A) (A) (A) (A) (A) (A) (A) (A) (A) (A)
                 (A) (A) (A) (A) (A) (A) (A) (A) (A) (A) (A) (A)
                 (A) (A) (A) (A) (A) (A) (A) (A) (A) (A) (A) (A)
                 (A) (A) (A) (A) (A) (A) (A) (A) (A) (A) (A) (A)
                 (A) (A) (A) (A) (A) (A) (A) (A) (A) (A) (A) (A)
                 (A) (A) (A) (A) (A) (A) (A) (A) (A) (A) (A) (A)
                 (A) (A) (A) (A) (A) (A) (A) (A) (A) (A) (A) (A)
                 (A) (A) (A) (A) (A) (A) (A) (A) (A) (A) (A) (A)
                 (A) (A) (A) (A) (A) (A) (A) (A) (A) (A) (A) (A)
                 (A) (A) (A) (A) (A) (A) (A) (A) (A) (A) (A) (A)
                 (A) (A) (A) (A) (A) (A) (A) (A) (A) (A) (A) (A)
                 (A) (A) (A) (A) (A) (A) (A) (A) (A) (A) (A) (A)
                 (A) (A) (A) (A) (A) (A) (A) (A) (A) (A) (A) (A)
                 (A) (A) (A) (A) (A) (A) (A) (A) (A) (A) (A) (A)
                 (A) (A) (A) (A) (A) (A) (A) (A) (A) (A) (A) (A)
                 (A) (A) (A) (A) (A) (A) (A) (A) (A) (A) (A) (A)
                 (A) (A) (A) (A) (A) (A) (A) (A) (A) (A) (A) (A)
                 (A) (A) (A) (A) (A) (A) (A) (A) (A) (A) (A) (A)
                 (A) (A) (A) (A) (A) (A) (A) (A) (A) (A) (A) (A)
                 (A) (A) (A) (A) (A) (A) (A) (A) (A) (A) (A) (A)
                 (A) (A) (A) (A) (A) (A) (A) (A) (A) (A) (A) (A)
                 (A) (A) (A) (A) (A) (A) (A) (A) (A) (A) (A) (A)
                 (A) (A) (A) (A) (A) (A) (A) (A) (A) (A) (A) (A)
                 (A) (A) (A) (A) (A) (A) (A) (A) (A) (A) (A) (A)
                 (A) (A) (A) (A) (A) (A) (A) (A) (A) (A) (A) (A)
                 (A) (A) (A) (A) (A) (A) (A) (A) (A) (A) (A) (A)
                 (A) (A) (A) (A) (A) (A) (A) (A) (A) (A) (A) (A)
                 (A) (A)
 The electronic state is 1-A.
 Alpha  occ. eigenvalues --  -89.11561 -89.10502 -77.24942 -24.73681 -24.73460
 Alpha  occ. eigenvalues --  -24.73300 -19.19198 -19.18495 -19.15132 -19.14872
 Alpha  occ. eigenvalues --  -19.13447 -19.13104 -19.11964 -14.40840 -14.37635
 Alpha  occ. eigenvalues --  -14.34976 -14.32625 -10.43961 -10.28903 -10.27389
 Alpha  occ. eigenvalues --  -10.26531 -10.25843 -10.25408 -10.24291 -10.23616
 Alpha  occ. eigenvalues --  -10.23234 -10.22385 -10.22000 -10.21876 -10.21481
 Alpha  occ. eigenvalues --  -10.21200 -10.21042 -10.20673 -10.20597 -10.20357
 Alpha  occ. eigenvalues --  -10.20262 -10.20089 -10.18486  -8.14198  -8.12972
 Alpha  occ. eigenvalues --   -6.69276  -6.10714  -6.10598  -6.10465  -6.09435
 Alpha  occ. eigenvalues --   -6.09369  -6.09348  -4.85791  -4.85640  -4.85410
 Alpha  occ. eigenvalues --   -1.31393  -1.22661  -1.22582  -1.11684  -1.10080
 Alpha  occ. eigenvalues --   -1.08512  -1.04334  -1.01711  -1.00601  -0.98929
 Alpha  occ. eigenvalues --   -0.97744  -0.96335  -0.94747  -0.88178  -0.86996
 Alpha  occ. eigenvalues --   -0.81767  -0.81639  -0.81520  -0.79656  -0.78028
 Alpha  occ. eigenvalues --   -0.76291  -0.76008  -0.72918  -0.72562  -0.71107
 Alpha  occ. eigenvalues --   -0.67708  -0.66737  -0.64566  -0.63684  -0.62815
 Alpha  occ. eigenvalues --   -0.62323  -0.61130  -0.60735  -0.60318  -0.59243
 Alpha  occ. eigenvalues --   -0.59052  -0.58440  -0.58230  -0.57851  -0.56264
 Alpha  occ. eigenvalues --   -0.54222  -0.53782  -0.51993  -0.51364  -0.50388
 Alpha  occ. eigenvalues --   -0.49825  -0.49544  -0.49131  -0.48741  -0.48253
 Alpha  occ. eigenvalues --   -0.47659  -0.47362  -0.46544  -0.46295  -0.46255
 Alpha  occ. eigenvalues --   -0.45776  -0.45154  -0.44870  -0.44476  -0.44360
 Alpha  occ. eigenvalues --   -0.44070  -0.43647  -0.43490  -0.43107  -0.42790
 Alpha  occ. eigenvalues --   -0.42645  -0.42473  -0.42206  -0.41576  -0.41524
 Alpha  occ. eigenvalues --   -0.41120  -0.40551  -0.39782  -0.39086  -0.38822
 Alpha  occ. eigenvalues --   -0.38315  -0.37170  -0.36762  -0.35945  -0.35632
 Alpha  occ. eigenvalues --   -0.34700  -0.34183  -0.33272  -0.32815  -0.32406
 Alpha  occ. eigenvalues --   -0.31923  -0.31249  -0.30848  -0.30526  -0.30391
 Alpha  occ. eigenvalues --   -0.29717  -0.29617  -0.28980  -0.27810  -0.27665
 Alpha  occ. eigenvalues --   -0.27301  -0.26982  -0.26445  -0.26291  -0.25078
 Alpha  occ. eigenvalues --   -0.24794  -0.23110
 Alpha virt. eigenvalues --   -0.09935  -0.04661  -0.03463  -0.02785  -0.02021
 Alpha virt. eigenvalues --   -0.01540   0.01957   0.02376   0.05197   0.05901
 Alpha virt. eigenvalues --    0.06189   0.07454   0.07921   0.08192   0.08320
 Alpha virt. eigenvalues --    0.08742   0.09158   0.09670   0.09801   0.10725
 Alpha virt. eigenvalues --    0.10917   0.11864   0.12203   0.12647   0.13015
 Alpha virt. eigenvalues --    0.13361   0.14194   0.14560   0.14756   0.15296
 Alpha virt. eigenvalues --    0.15599   0.15863   0.16009   0.16970   0.17036
 Alpha virt. eigenvalues --    0.17180   0.17207   0.17608   0.18277   0.18680
 Alpha virt. eigenvalues --    0.19139   0.19596   0.20337   0.20882   0.21053
 Alpha virt. eigenvalues --    0.21883   0.22538   0.23587   0.24088   0.25310
 Alpha virt. eigenvalues --    0.26091   0.26865   0.27858   0.28165   0.29245
 Alpha virt. eigenvalues --    0.29742   0.30561   0.31172   0.31679   0.31973
 Alpha virt. eigenvalues --    0.32742   0.32972   0.34004   0.34042   0.35162
 Alpha virt. eigenvalues --    0.35674   0.35861   0.37381   0.38478   0.38808
 Alpha virt. eigenvalues --    0.39982   0.40454   0.41316   0.41602   0.42864
 Alpha virt. eigenvalues --    0.44338   0.44811   0.45207   0.47172   0.47602
 Alpha virt. eigenvalues --    0.47981   0.48289   0.49750   0.50205   0.50367
 Alpha virt. eigenvalues --    0.51183   0.52224   0.52604   0.53177   0.53309
 Alpha virt. eigenvalues --    0.53570   0.54223   0.54532   0.54672   0.55185
 Alpha virt. eigenvalues --    0.55713   0.56134   0.56214   0.56827   0.57113
 Alpha virt. eigenvalues --    0.57344   0.57711   0.58017   0.58230   0.58368
 Alpha virt. eigenvalues --    0.58973   0.59288   0.59486   0.59767   0.60084
 Alpha virt. eigenvalues --    0.60563   0.60924   0.61568   0.62082   0.62336
 Alpha virt. eigenvalues --    0.63008   0.63399   0.64031   0.64221   0.64449
 Alpha virt. eigenvalues --    0.64861   0.66333   0.66483   0.67564   0.67951
 Alpha virt. eigenvalues --    0.69106   0.69673   0.70716   0.71954   0.72336
 Alpha virt. eigenvalues --    0.73301   0.73645   0.74229   0.74452   0.75015
 Alpha virt. eigenvalues --    0.76209   0.76587   0.77559   0.77785   0.78515
 Alpha virt. eigenvalues --    0.78880   0.79769   0.80181   0.80510   0.80774
 Alpha virt. eigenvalues --    0.80939   0.81255   0.81520   0.82573   0.83025
 Alpha virt. eigenvalues --    0.83167   0.83593   0.83958   0.84838   0.85353
 Alpha virt. eigenvalues --    0.85583   0.86374   0.86707   0.87103   0.87520
 Alpha virt. eigenvalues --    0.87853   0.88549   0.89164   0.89966   0.90647
 Alpha virt. eigenvalues --    0.91193   0.91676   0.92516   0.93133   0.93855
 Alpha virt. eigenvalues --    0.94610   0.95091   0.95342   0.95689   0.96614
 Alpha virt. eigenvalues --    0.97360   0.97672   0.97885   0.98845   0.99061
 Alpha virt. eigenvalues --    0.99544   0.99937   1.00923   1.02399   1.02572
 Alpha virt. eigenvalues --    1.04036   1.04226   1.04599   1.05947   1.06039
 Alpha virt. eigenvalues --    1.06912   1.07207   1.07921   1.08379   1.08788
 Alpha virt. eigenvalues --    1.09688   1.10036   1.10398   1.11202   1.11612
 Alpha virt. eigenvalues --    1.11802   1.13012   1.13560   1.14122   1.15125
 Alpha virt. eigenvalues --    1.15525   1.16564   1.16654   1.17231   1.17886
 Alpha virt. eigenvalues --    1.18437   1.19099   1.19439   1.20106   1.20824
 Alpha virt. eigenvalues --    1.21326   1.21956   1.22864   1.23525   1.23683
 Alpha virt. eigenvalues --    1.24267   1.25128   1.25226   1.25837   1.27235
 Alpha virt. eigenvalues --    1.28418   1.29357   1.29498   1.30541   1.30759
 Alpha virt. eigenvalues --    1.32068   1.32785   1.33326   1.33819   1.34426
 Alpha virt. eigenvalues --    1.35687   1.36031   1.36377   1.37091   1.37593
 Alpha virt. eigenvalues --    1.38296   1.38534   1.39000   1.39438   1.39779
 Alpha virt. eigenvalues --    1.40183   1.40298   1.40659   1.41217   1.41957
 Alpha virt. eigenvalues --    1.42609   1.43423   1.44804   1.45113   1.46090
 Alpha virt. eigenvalues --    1.46604   1.47020   1.48003   1.48823   1.48867
 Alpha virt. eigenvalues --    1.51543   1.51892   1.54409   1.55846   1.56058
 Alpha virt. eigenvalues --    1.56970   1.58210   1.59152   1.60427   1.61292
 Alpha virt. eigenvalues --    1.62697   1.65143   1.65578   1.66843   1.67617
 Alpha virt. eigenvalues --    1.68915   1.69726   1.70068   1.70862   1.72575
 Alpha virt. eigenvalues --    1.73637   1.74306   1.75713   1.76133   1.76590
 Alpha virt. eigenvalues --    1.76806   1.76856   1.77093   1.77906   1.78505
 Alpha virt. eigenvalues --    1.78932   1.80167   1.80411   1.80557   1.81245
 Alpha virt. eigenvalues --    1.82133   1.82390   1.82779   1.83543   1.83887
 Alpha virt. eigenvalues --    1.84653   1.84864   1.85199   1.85929   1.86022
 Alpha virt. eigenvalues --    1.86403   1.86750   1.87232   1.87490   1.87693
 Alpha virt. eigenvalues --    1.88926   1.89031   1.90093   1.90916   1.91496
 Alpha virt. eigenvalues --    1.91838   1.92120   1.92519   1.93427   1.93879
 Alpha virt. eigenvalues --    1.94646   1.95328   1.95785   1.96363   1.96797
 Alpha virt. eigenvalues --    1.97325   1.97477   1.97683   1.97929   1.98320
 Alpha virt. eigenvalues --    1.99120   1.99377   1.99724   2.00213   2.00742
 Alpha virt. eigenvalues --    2.01055   2.01725   2.02214   2.03253   2.03903
 Alpha virt. eigenvalues --    2.04832   2.05691   2.05746   2.06761   2.07558
 Alpha virt. eigenvalues --    2.08438   2.08695   2.09692   2.10014   2.10999
 Alpha virt. eigenvalues --    2.11877   2.12673   2.13553   2.14091   2.14662
 Alpha virt. eigenvalues --    2.14892   2.15737   2.17378   2.18235   2.18828
 Alpha virt. eigenvalues --    2.19138   2.20283   2.20443   2.21635   2.22412
 Alpha virt. eigenvalues --    2.24053   2.25788   2.26325   2.26684   2.27263
 Alpha virt. eigenvalues --    2.28392   2.29269   2.29726   2.30197   2.30498
 Alpha virt. eigenvalues --    2.31243   2.32695   2.33915   2.34425   2.34778
 Alpha virt. eigenvalues --    2.34799   2.35778   2.36696   2.37096   2.37394
 Alpha virt. eigenvalues --    2.37883   2.38046   2.39021   2.39399   2.39787
 Alpha virt. eigenvalues --    2.40126   2.40420   2.41215   2.42124   2.42491
 Alpha virt. eigenvalues --    2.43865   2.44081   2.44260   2.45161   2.46133
 Alpha virt. eigenvalues --    2.46178   2.46743   2.47411   2.47677   2.48336
 Alpha virt. eigenvalues --    2.49118   2.50554   2.51145   2.52085   2.52242
 Alpha virt. eigenvalues --    2.53761   2.54673   2.54980   2.55391   2.55882
 Alpha virt. eigenvalues --    2.56212   2.56330   2.57829   2.58334   2.59159
 Alpha virt. eigenvalues --    2.59542   2.60935   2.61598   2.62516   2.63402
 Alpha virt. eigenvalues --    2.64359   2.64988   2.65418   2.66514   2.68325
 Alpha virt. eigenvalues --    2.69898   2.70186   2.70841   2.72341   2.72777
 Alpha virt. eigenvalues --    2.73340   2.73758   2.74203   2.75786   2.75917
 Alpha virt. eigenvalues --    2.76474   2.78337   2.78828   2.79589   2.80501
 Alpha virt. eigenvalues --    2.81962   2.82719   2.82913   2.85175   2.85587
 Alpha virt. eigenvalues --    2.86307   2.87443   2.89283   2.89860   2.91207
 Alpha virt. eigenvalues --    2.92678   2.97579   2.98622   2.98882   3.02996
 Alpha virt. eigenvalues --    3.03131   3.03560   3.04616   3.05045   3.06060
 Alpha virt. eigenvalues --    3.07440   3.12578   3.16725   3.17760   3.19288
 Alpha virt. eigenvalues --    3.22372   3.22552   3.23382   3.26061   3.27373
 Alpha virt. eigenvalues --    3.28471   3.30763   3.30910   3.32547   3.36871
 Alpha virt. eigenvalues --    3.40734   3.41124   3.44881   3.46795   3.47508
 Alpha virt. eigenvalues --    3.47950   3.51659   3.57280   3.61300   3.63019
 Alpha virt. eigenvalues --    3.75401   3.80613   3.82653   3.88836   3.88992
 Alpha virt. eigenvalues --    3.95040   3.98003   4.00022   4.01551   4.05136
 Alpha virt. eigenvalues --    4.08659   4.09149   4.11113   4.11654   4.13236
 Alpha virt. eigenvalues --    4.13864   4.17446   4.18268   4.20807   4.23758
 Alpha virt. eigenvalues --    4.25112   4.26793   4.31715   4.33854   4.37516
 Alpha virt. eigenvalues --    4.40506   4.41974   4.44609   4.46155   4.49009
 Alpha virt. eigenvalues --    4.50169   4.60598   4.62284   4.64199   4.65279
 Alpha virt. eigenvalues --    4.68595   4.71964   4.72569   4.85112   5.12180
          Condensed to atoms (all electrons):
 Mulliken charges:
               1
     1  C    0.192878
     2  C   -0.140932
     3  C   -0.116302
     4  C    0.067426
     5  H    0.099685
     6  H    0.115956
     7  H    0.124217
     8  H    0.152035
     9  O   -0.557099
    10  P    1.280741
    11  O   -0.526695
    12  O   -0.604027
    13  N   -0.858641
    14  S    1.166121
    15  O   -0.545709
    16  O   -0.533646
    17  C    0.596205
    18  F   -0.232227
    19  F   -0.241947
    20  F   -0.235255
    21  H    0.429502
    22  C    0.006346
    23  N   -0.644344
    24  S    1.264121
    25  O   -0.534185
    26  O   -0.537237
    27  C   -0.080561
    28  C    0.111775
    29  N   -0.422965
    30  C    0.012428
    31  C   -0.068632
    32  C   -0.041235
    33  H    0.108044
    34  H    0.113935
    35  H    0.163308
    36  H    0.121086
    37  C   -0.078014
    38  C   -0.097570
    39  C   -0.114448
    40  C    0.141736
    41  C   -0.113503
    42  C   -0.089386
    43  H    0.095394
    44  H    0.101546
    45  H    0.132222
    46  H    0.090396
    47  H    0.094413
    48  H    0.177645
    49  C    0.143564
    50  C   -0.110678
    51  C   -0.053435
    52  C   -0.046230
    53  H    0.150362
    54  H    0.115750
    55  H    0.122845
    56  H    0.184493
    57  N   -0.436387
    58  H    0.385115
 Sum of Mulliken charges =   0.00000
 Mulliken charges with hydrogens summed into heavy atoms:
               1
     1  C    0.308834
     2  C   -0.041248
     3  C    0.035733
     4  C    0.191644
     9  O   -0.557099
    10  P    1.280741
    11  O   -0.526695
    12  O   -0.604027
    13  N   -0.858641
    14  S    1.166121
    15  O   -0.545709
    16  O   -0.533646
    17  C    0.596205
    18  F   -0.232227
    19  F   -0.241947
    20  F   -0.235255
    22  C    0.183991
    23  N   -0.214842
    24  S    1.264121
    25  O   -0.534185
    26  O   -0.537237
    27  C    0.027483
    28  C    0.225711
    29  N   -0.422965
    30  C    0.012428
    31  C    0.094676
    32  C    0.079851
    37  C    0.017380
    38  C    0.003976
    39  C    0.017775
    40  C    0.141736
    41  C   -0.023107
    42  C    0.005027
    49  C    0.293926
    50  C    0.005071
    51  C    0.069410
    52  C    0.138263
    57  N   -0.051272
 APT charges:
               1
     1  C   -0.768921
     2  C   -0.499343
     3  C    0.366692
     4  C   -0.676912
     5  H    1.168750
     6  H    0.697188
     7  H    0.584456
     8  H    0.134251
     9  O   -0.544398
    10  P    0.591276
    11  O   -0.439085
    12  O   -0.416898
    13  N   -0.873027
    14  S   -0.010424
    15  O   -0.005962
    16  O   -0.366234
    17  C   -0.066836
    18  F    0.330732
    19  F   -0.130556
    20  F    0.132614
    21  H    0.184766
    22  C   -0.591489
    23  N   -0.349652
    24  S    0.134758
    25  O   -0.404283
    26  O    0.200018
    27  C   -0.329166
    28  C   -0.299782
    29  N   -0.557315
    30  C   -0.279338
    31  C   -0.529154
    32  C   -0.435981
    33  H    0.984391
    34  H    0.799093
    35  H    0.195908
    36  H    0.673859
    37  C   -0.371394
    38  C   -0.487154
    39  C   -0.581828
    40  C   -0.560185
    41  C   -0.467718
    42  C   -0.320724
    43  H    0.996695
    44  H    0.392087
    45  H   -0.085696
    46  H    0.619009
    47  H    1.113169
    48  H    0.693357
    49  C   -0.244805
    50  C   -0.244365
    51  C   -0.698102
    52  C   -0.606833
    53  H    0.504945
    54  H    1.106998
    55  H    0.861728
    56  H    0.329960
    57  N   -0.649352
    58  H    0.096214
 Sum of APT charges =   0.00000
 APT charges with hydrogens summed into heavy atoms:
               1
     1  C   -0.071733
     2  C    0.669407
     3  C    0.500943
     4  C   -0.092457
     9  O   -0.544398
    10  P    0.591276
    11  O   -0.439085
    12  O   -0.416898
    13  N   -0.873027
    14  S   -0.010424
    15  O   -0.005962
    16  O   -0.366234
    17  C   -0.066836
    18  F    0.330732
    19  F   -0.130556
    20  F    0.132614
    22  C    0.101867
    23  N   -0.164886
    24  S    0.134758
    25  O   -0.404283
    26  O    0.200018
    27  C    0.655226
    28  C    0.499310
    29  N   -0.557315
    30  C   -0.279338
    31  C   -0.333246
    32  C    0.237877
    37  C    0.625301
    38  C   -0.095067
    39  C   -0.667524
    40  C   -0.560185
    41  C    0.151291
    42  C    0.792445
    49  C    0.260140
    50  C    0.862633
    51  C    0.163626
    52  C   -0.276873
    57  N   -0.553138
 Electronic spatial extent (au):  <R**2>=          16618.3048
 Charge=              0.0000 electrons
 Dipole moment (field-independent basis, Debye):
    X=             -4.2547    Y=             -3.7639    Z=             -0.1422  Tot=              5.6824
 Quadrupole moment (field-independent basis, Debye-Ang):
   XX=           -198.9700   YY=           -214.6560   ZZ=           -240.4912
   XY=             17.5043   XZ=             -2.4473   YZ=              9.8535
 Traceless Quadrupole moment (field-independent basis, Debye-Ang):
   XX=             19.0691   YY=              3.3831   ZZ=            -22.4521
   XY=             17.5043   XZ=             -2.4473   YZ=              9.8535
 Octapole moment (field-independent basis, Debye-Ang**2):
  XXX=            -73.4986  YYY=            -47.2491  ZZZ=             63.2812  XYY=             92.4046
  XXY=            -66.8009  XXZ=            -14.7692  XZZ=             -7.0107  YZZ=            -29.6624
  YYZ=             56.9254  XYZ=             11.5756
 Hexadecapole moment (field-independent basis, Debye-Ang**3):
 XXXX=          -9322.8226 YYYY=          -6331.5016 ZZZZ=          -4567.8167 XXXY=            -49.1038
 XXXZ=             78.6963 YYYX=            184.5352 YYYZ=            186.5414 ZZZX=             75.0815
 ZZZY=            -83.9313 XXYY=          -2567.6394 XXZZ=          -2356.3493 YYZZ=          -1754.9567
 XXYZ=             52.5185 YYXZ=             49.0622 ZZXY=             52.0475
 N-N= 5.696187036774D+03 E-N=-1.843922887979D+04  KE= 2.974179745994D+03
  Exact polarizability:   0.000   0.000   0.000   0.000   0.000   0.000
 Approx polarizability: 602.659  19.804 501.570  -4.523  25.335 466.109
 Calling FoFJK, ICntrl=    100147 FMM=F ISym2X=0 I1Cent= 0 IOpClX= 0 NMat=1 NMatS=1 NMatT=0.
 ***** Axes restored to original set *****
 -------------------------------------------------------------------
 Center     Atomic                   Forces (Hartrees/Bohr)
 Number     Number              X              Y              Z
 -------------------------------------------------------------------
      1        6           0.000005878   -0.000000826    0.000005723
      2        6          -0.000001597    0.000000104    0.000001596
      3        6          -0.000002781   -0.000002543   -0.000004406
      4        6           0.000004953   -0.000000804    0.000002152
      5        1           0.000000244   -0.000001234    0.000001044
      6        1           0.000000321   -0.000001121    0.000002550
      7        1          -0.000000294   -0.000002485    0.000000856
      8        1           0.000000820   -0.000000909    0.000000297
      9        8          -0.000008270   -0.000005536   -0.000001868
     10       15          -0.000001967    0.000003389    0.000010843
     11        8           0.000003417   -0.000004013   -0.000002876
     12        8           0.000002567   -0.000002783   -0.000004262
     13        7           0.007147847   -0.004379694    0.000748073
     14       16           0.000006014    0.000002291   -0.000006135
     15        8          -0.000002860    0.000001520    0.000000100
     16        8           0.000000621    0.000002848    0.000000889
     17        6          -0.000004056   -0.000001808   -0.000001490
     18        9          -0.000001822    0.000003358    0.000002665
     19        9           0.000001465    0.000004053    0.000001341
     20        9           0.000000920   -0.000001412    0.000001759
     21        1          -0.007154473    0.004380155   -0.000744803
     22        6          -0.000433993   -0.000835045   -0.001885010
     23        7           0.000006284   -0.000001513   -0.000000566
     24       16          -0.000003506    0.000000718   -0.000000763
     25        8          -0.000000214   -0.000001462   -0.000001754
     26        8           0.000000331    0.000001438   -0.000003366
     27        6           0.000000137    0.000001001   -0.000002783
     28        6          -0.000000380    0.000002695   -0.000002752
     29        7           0.000000445    0.000001005   -0.000003484
     30        6           0.000000940   -0.000001801   -0.000003242
     31        6           0.000001262    0.000000114   -0.000001810
     32        6          -0.000000200   -0.000000540   -0.000003062
     33        1           0.000000332    0.000001305   -0.000003767
     34        1           0.000000647    0.000001349   -0.000004069
     35        1           0.000000197   -0.000001279   -0.000002182
     36        1           0.000000415    0.000000462   -0.000003320
     37        6           0.000000688    0.000001861    0.000001818
     38        6          -0.000000136    0.000001297    0.000002739
     39        6           0.000000351   -0.000000502    0.000001941
     40        6           0.000001554   -0.000001605   -0.000004623
     41        6          -0.000000619    0.000002449    0.000000820
     42        6          -0.000000347    0.000002371    0.000000726
     43        1           0.000000091    0.000003047    0.000001969
     44        1           0.000000427    0.000002271    0.000002544
     45        1           0.000000475    0.000002604    0.000001650
     46        1           0.000000469    0.000000838   -0.000000028
     47        1           0.000000100    0.000002474    0.000000780
     48        1          -0.000001974   -0.000001049   -0.000000013
     49        6           0.000000478    0.000000275    0.000001123
     50        6          -0.000000335   -0.000001159    0.000000387
     51        6          -0.000000022   -0.000001222    0.000003535
     52        6           0.000431789    0.000833780    0.001887935
     53        1          -0.000000228   -0.000001770    0.000002169
     54        1          -0.000000456   -0.000001222    0.000001863
     55        1          -0.000000354   -0.000000791   -0.000000371
     56        1          -0.000000058    0.000000101    0.000000528
     57        7          -0.000001101   -0.000001372   -0.000008579
     58        1          -0.000000434   -0.000003668    0.000008971
 -------------------------------------------------------------------
 Cartesian Forces:  Max     0.007154473 RMS     0.000930474
 FormGI is forming the generalized inverse of G from B-inverse, IUseBI=4.
 GSVD:  received Info=                   1 from GESDD.

 GradGradGradGradGradGradGradGradGradGradGradGradGradGradGradGradGradGrad
 Berny optimization.
 Internal  Forces:  Max     0.013912638 RMS     0.001462108
 Search for a saddle point.
 Step number   1 out of a maximum of  308
 All quantities printed in internal units (Hartrees-Bohrs-Radians)
 Swapping is turned off.
 Second derivative matrix not updated -- analytic derivatives used.
 ITU=  0
     Eigenvalues ---   -0.04143   0.00029   0.00068   0.00130   0.00298
     Eigenvalues ---    0.00386   0.00542   0.00668   0.00746   0.00818
     Eigenvalues ---    0.00954   0.01009   0.01270   0.01332   0.01374
     Eigenvalues ---    0.01498   0.01592   0.01619   0.01706   0.01718
     Eigenvalues ---    0.01751   0.01860   0.01894   0.01949   0.01999
     Eigenvalues ---    0.02268   0.02306   0.02332   0.02346   0.02405
     Eigenvalues ---    0.02525   0.02555   0.02575   0.02724   0.02735
     Eigenvalues ---    0.02769   0.02813   0.02852   0.02894   0.02969
     Eigenvalues ---    0.03049   0.03214   0.03255   0.03690   0.04539
     Eigenvalues ---    0.04978   0.05565   0.06113   0.06523   0.06720
     Eigenvalues ---    0.07628   0.08188   0.08593   0.08865   0.09610
     Eigenvalues ---    0.09792   0.10042   0.10204   0.10358   0.10577
     Eigenvalues ---    0.10599   0.10671   0.10768   0.11011   0.11146
     Eigenvalues ---    0.11384   0.11419   0.11507   0.11601   0.11687
     Eigenvalues ---    0.11853   0.12119   0.12231   0.12287   0.12415
     Eigenvalues ---    0.12445   0.12996   0.13268   0.13417   0.13626
     Eigenvalues ---    0.13995   0.14986   0.15498   0.15788   0.15938
     Eigenvalues ---    0.16140   0.16670   0.17290   0.18420   0.18774
     Eigenvalues ---    0.19162   0.19379   0.19516   0.20018   0.20164
     Eigenvalues ---    0.20360   0.20621   0.20970   0.21298   0.21343
     Eigenvalues ---    0.21750   0.22709   0.23775   0.24149   0.24899
     Eigenvalues ---    0.25492   0.25920   0.27421   0.28753   0.28860
     Eigenvalues ---    0.29313   0.29596   0.30789   0.31496   0.31627
     Eigenvalues ---    0.33979   0.34221   0.35125   0.35253   0.35633
     Eigenvalues ---    0.35664   0.35766   0.35806   0.35942   0.36026
     Eigenvalues ---    0.36132   0.36158   0.36242   0.36287   0.36330
     Eigenvalues ---    0.36497   0.36561   0.36632   0.36840   0.37075
     Eigenvalues ---    0.37169   0.37413   0.37505   0.37898   0.38104
     Eigenvalues ---    0.38766   0.39491   0.41992   0.42129   0.42323
     Eigenvalues ---    0.42539   0.44030   0.44124   0.45841   0.46947
     Eigenvalues ---    0.47228   0.47629   0.51282   0.51832   0.53468
     Eigenvalues ---    0.54203   0.56073   0.56568   0.56898   0.57835
     Eigenvalues ---    0.58994   0.59287   0.59733   0.60770   0.61292
     Eigenvalues ---    1.23204   3.22563   5.84822
 Eigenvectors required to have negative eigenvalues:
                         D135      D129      D131      D136       D57
   1                   -0.28737   0.26996   0.26818  -0.25756   0.24684
                          D58       D53       D56       D54       R24
   1                    0.23448  -0.22480   0.21564  -0.20836  -0.20124
 RFO step:  Lambda0=4.559644363D-04 Lambda=-2.56726748D-03.
 Linear search not attempted -- option 19 set.
 Iteration  1 RMS(Cart)=  0.06114575 RMS(Int)=  0.00470040
 Iteration  2 RMS(Cart)=  0.01662188 RMS(Int)=  0.00009362
 Iteration  3 RMS(Cart)=  0.00003791 RMS(Int)=  0.00009335
 Iteration  4 RMS(Cart)=  0.00000001 RMS(Int)=  0.00009335
 Variable       Old X    -DE/DX   Delta X   Delta X   Delta X     New X
                                 (Linear)    (Quad)   (Total)
    R1        2.54653  -0.00010   0.00000   0.00031   0.00032   2.54685
    R2        2.05204   0.00000   0.00000   0.00016   0.00016   2.05219
    R3        2.62963   0.00006   0.00000  -0.00158  -0.00158   2.62805
    R4        2.78450  -0.00018   0.00000   0.00004   0.00004   2.78454
    R5        2.05267   0.00000   0.00000  -0.00002  -0.00002   2.05265
    R6        2.53429  -0.00012   0.00000   0.00020   0.00020   2.53449
    R7        2.05623   0.00000   0.00000   0.00026   0.00026   2.05650
    R8        2.05724   0.00000   0.00000   0.00010   0.00010   2.05734
    R9        2.64599  -0.00005   0.00000  -0.00098  -0.00098   2.64501
   R10        3.11359   0.00017   0.00000   0.00221   0.00221   3.11579
   R11        3.13488   0.00017   0.00000   0.00609   0.00608   3.14096
   R12        2.82948  -0.00164   0.00000  -0.00008  -0.00008   2.82940
   R13        3.08842  -0.00177   0.00000  -0.00998  -0.00998   3.07844
   R14        3.03750  -0.00025   0.00000   0.02100   0.02100   3.05850
   R15        3.06692   0.00003   0.00000  -0.01201  -0.01201   3.05491
   R16        3.21273   0.00849   0.00000   0.27949   0.27949   3.49222
   R17        2.77703   0.00000   0.00000   0.00135   0.00135   2.77838
   R18        2.76771   0.00000   0.00000   0.00223   0.00223   2.76994
   R19        3.54614  -0.00005   0.00000  -0.00269  -0.00269   3.54345
   R20        2.52483   0.00000   0.00000   0.00024   0.00024   2.52506
   R21        2.53871  -0.00004   0.00000   0.00210   0.00210   2.54081
   R22        2.52528   0.00000   0.00000   0.00026   0.00026   2.52554
   R23        2.00948   0.00021   0.00000  -0.04403  -0.04403   1.96546
   R24        2.60749   0.00065   0.00000  -0.01502  -0.01502   2.59247
   R25        2.80958   0.00000   0.00000  -0.01136  -0.01136   2.79822
   R26        2.05557   0.00000   0.00000  -0.00174  -0.00174   2.05384
   R27        3.23075   0.00005   0.00000   0.01611   0.01611   3.24686
   R28        2.77458   0.00000   0.00000  -0.00171  -0.00171   2.77287
   R29        2.77050   0.00000   0.00000  -0.00378  -0.00378   2.76672
   R30        3.42038  -0.00002   0.00000  -0.00148  -0.00148   3.41890
   R31        2.64193   0.00003   0.00000   0.00017   0.00017   2.64210
   R32        2.63059  -0.00004   0.00000  -0.00023  -0.00023   2.63035
   R33        2.05015   0.00000   0.00000  -0.00009  -0.00009   2.05006
   R34        2.52347   0.00001   0.00000   0.00002   0.00002   2.52349
   R35        2.05443   0.00000   0.00000  -0.00020  -0.00020   2.05422
   R36        2.50409  -0.00001   0.00000  -0.00050  -0.00050   2.50358
   R37        2.62979   0.00001   0.00000  -0.00021  -0.00021   2.62958
   R38        2.63786  -0.00003   0.00000   0.00044   0.00044   2.63830
   R39        2.04679   0.00000   0.00000   0.00016   0.00016   2.04695
   R40        2.05032   0.00000   0.00000  -0.00027  -0.00027   2.05005
   R41        2.63506   0.00000   0.00000   0.00042   0.00042   2.63548
   R42        2.64084   0.00000   0.00000   0.00044   0.00044   2.64129
   R43        2.05219   0.00000   0.00000  -0.00003  -0.00003   2.05216
   R44        2.63663   0.00000   0.00000  -0.00083  -0.00083   2.63580
   R45        2.05069   0.00000   0.00000  -0.00024  -0.00024   2.05045
   R46        2.64931   0.00000   0.00000   0.00221   0.00221   2.65151
   R47        2.04778   0.00000   0.00000   0.00106   0.00106   2.04884
   R48        2.65413   0.00000   0.00000   0.00106   0.00106   2.65519
   R49        2.62944   0.00000   0.00000  -0.00079  -0.00079   2.62864
   R50        2.05391   0.00000   0.00000  -0.00025  -0.00025   2.05365
   R51        2.05180   0.00000   0.00000  -0.00017  -0.00017   2.05163
   R52        2.68484   0.00007   0.00000  -0.00585  -0.00599   2.67885
   R53        2.04491   0.00000   0.00000  -0.00060  -0.00060   2.04431
   R54        2.50401  -0.00014   0.00000   0.00708   0.00704   2.51105
   R55        2.60072   0.00019   0.00000   0.00642   0.00638   2.60709
   R56        2.04169   0.00000   0.00000  -0.00007  -0.00007   2.04162
   R57        2.72284   0.00004   0.00000  -0.01212  -0.01201   2.71083
   R58        2.04446   0.00000   0.00000  -0.00007  -0.00007   2.04439
   R59        2.05082   0.00000   0.00000  -0.00239  -0.00239   2.04843
   R60        2.66459   0.00040   0.00000  -0.01088  -0.01077   2.65382
   R61        1.98798  -0.00026   0.00000  -0.00323  -0.00323   1.98474
    A1        2.16815  -0.00004   0.00000  -0.00082  -0.00082   2.16732
    A2        2.19986   0.00006   0.00000   0.00014   0.00014   2.20001
    A3        1.90849  -0.00002   0.00000   0.00065   0.00065   1.90913
    A4        1.93828  -0.00019   0.00000  -0.00010  -0.00010   1.93818
    A5        2.09197   0.00010   0.00000   0.00025   0.00025   2.09221
    A6        2.24391   0.00008   0.00000  -0.00015  -0.00015   2.24376
    A7        1.93156  -0.00009   0.00000   0.00039   0.00039   1.93195
    A8        2.07343   0.00002   0.00000  -0.00012  -0.00012   2.07331
    A9        2.08483   0.00002   0.00000  -0.00032  -0.00032   2.08451
   A10        2.13932   0.00005   0.00000  -0.00049  -0.00050   2.13882
   A11        2.09885  -0.00003   0.00000   0.00015   0.00015   2.09900
   A12        1.97955   0.00000   0.00000   0.00026   0.00026   1.97982
   A13        2.47671   0.00056   0.00000   0.00057   0.00057   2.47728
   A14        1.90707  -0.00093   0.00000  -0.00105  -0.00105   1.90602
   A15        1.90112   0.00252   0.00000   0.00039   0.00038   1.90149
   A16        1.87327   0.00302   0.00000   0.00373   0.00372   1.87699
   A17        1.93548   0.00194   0.00000  -0.00347  -0.00347   1.93202
   A18        1.89436   0.00148   0.00000  -0.00400  -0.00399   1.89037
   A19        1.95115  -0.00791   0.00000   0.00453   0.00452   1.95568
   A20        1.82794   0.00056   0.00000   0.00028   0.00028   1.82822
   A21        2.30466  -0.01391   0.00000   0.00071   0.00071   2.30536
   A22        2.19026   0.00434   0.00000   0.01345   0.01327   2.20354
   A23        2.00954  -0.00854   0.00000  -0.00610  -0.00612   2.00342
   A24        1.98921   0.00434   0.00000  -0.01616  -0.01616   1.97306
   A25        1.99828  -0.00003   0.00000   0.00544   0.00543   2.00371
   A26        1.88707   0.00000   0.00000   0.00272   0.00271   1.88978
   A27        1.81888   0.00008   0.00000  -0.00767  -0.00766   1.81122
   A28        2.09296   0.00001   0.00000  -0.00413  -0.00413   2.08883
   A29        1.82281   0.00001   0.00000   0.00147   0.00148   1.82429
   A30        1.81201  -0.00005   0.00000   0.00064   0.00064   1.81265
   A31        1.89679   0.00001   0.00000   0.00516   0.00516   1.90195
   A32        1.93103  -0.00008   0.00000  -0.00153  -0.00154   1.92949
   A33        1.94641   0.00003   0.00000  -0.00206  -0.00207   1.94435
   A34        1.89527   0.00001   0.00000  -0.00116  -0.00116   1.89411
   A35        1.89968   0.00000   0.00000   0.00041   0.00041   1.90009
   A36        1.89380   0.00004   0.00000  -0.00080  -0.00080   1.89300
   A37        2.06633  -0.00001   0.00000   0.00738   0.00707   2.07340
   A38        1.94013   0.00001   0.00000   0.00756   0.00715   1.94728
   A39        1.98800   0.00000   0.00000   0.01874   0.01841   2.00642
   A40        2.15994  -0.00064   0.00000  -0.02330  -0.02328   2.13666
   A41        1.98051   0.00031   0.00000   0.00241   0.00235   1.98286
   A42        2.05818   0.00044   0.00000   0.01331   0.01321   2.07139
   A43        1.88887  -0.00008   0.00000  -0.00280  -0.00279   1.88608
   A44        1.85151  -0.00008   0.00000  -0.00835  -0.00832   1.84319
   A45        1.77835   0.00033   0.00000  -0.01152  -0.01151   1.76684
   A46        2.09227   0.00003   0.00000   0.00416   0.00406   2.09634
   A47        1.88080  -0.00013   0.00000   0.00487   0.00480   1.88560
   A48        1.94524  -0.00002   0.00000   0.01009   0.01000   1.95524
   A49        2.07666   0.00001   0.00000   0.00082   0.00081   2.07748
   A50        2.09347  -0.00001   0.00000  -0.00038  -0.00038   2.09309
   A51        2.11301  -0.00001   0.00000  -0.00046  -0.00046   2.11255
   A52        2.14709   0.00001   0.00000  -0.00069  -0.00069   2.14640
   A53        2.10782  -0.00001   0.00000   0.00061   0.00061   2.10844
   A54        2.02827  -0.00001   0.00000   0.00007   0.00007   2.02834
   A55        2.03164  -0.00004   0.00000  -0.00086  -0.00086   2.03077
[...]
 .00001737,0.00008331,-0.00012616,-0.00000641,-0.00003642,0.00003805,-0
 .00000785,-0.00005695,0.00004030,0.00006355,0.00009410,-0.00005821,-0.
 00000210,-0.00002344,0.00003169,-0.00005874,-0.00004160,0.00002772,-0.
 00000103,-0.00003869,0.00001339,-0.00002062,-0.00004826,-0.00015400,0.
 00090722,0.00058174,-0.00266210,-0.00097974,-0.00056270,-0.00068157,0.
 00200587,-0.00259576,-0.00591731,-0.00022332,0.00164160,0.00273407,-0.
 00108787,0.00000719,0.00027736,-0.00004356,0.00004399,0.00006361,0.000
 10221,0.00005823,0.00000362,0.00012323,0.00010421,0.00024291,-0.000496
 19,-0.00001043,0.00036922,0.00007961,0.00003386,0.00002762,-0.00005781
 ,-0.00002130,-0.00002592,0.00000776,0.00000404,0.00000944,0.00001352,0
 .00001879,0.00002176,-0.00009109,0.00002489,-0.00001234,0.00001182,0.0
 0000298,0.00000109,-0.00002597,0.00001789,-0.00003315,-0.00000868,-0.0
 0001858,0.00001185,-0.00003486,0.00012902,-0.00005589,-0.00029500,-0.0
 0046612,-0.00001305,0.00015950,0.00004619,-0.00002263,-0.00001227,-0.0
 0003539,0.00004198,0.00000175,0.00000516,0.00000431,0.00000549,0.00000
 760,0.00000590,0.00003855,0.00001722,0.00000506,-0.00001084,0.00001195
 ,0.00001023,0.00000051,-0.00001039,-0.00000120,0.00004557,0.00011153,0
 .00073779,-0.00452807,0.00410111,0.00067833,-0.00522839,-0.00224247,-0
 .00082074,-0.00075800,-0.02022124,0.01460423,-0.09581300,-0.08696041,0
 .06402582,0.00084771,0.00071081,0.00127183,0.00040835,-0.00128473,-0.0
 0103240,0.00019053,0.00050157,-0.00086679,0.09278057,0.00003702,-0.000
 01740,-0.00002578,-0.00001347,-0.00000101,0.00000477,-0.00000204,-0.00
 000056,-0.00000745,-0.00002205,0.00001453,0.00003583,0.00000277,-0.000
 00298,0.00000329,0.00000274,-0.00000214,0.00000372,0.00001195,-0.00000
 549,-0.00000838,-0.00000405,0.00000137,-0.00000140,-0.00008402,-0.0000
 1155,-0.00004796,0.00036845,0.00039678,0.00039950,-0.00005314,-0.00013
 798,-0.00003340,-0.00033002,-0.00006230,-0.00021863,0.00001447,-0.0002
 5581,-0.00016659,0.00000778,0.00023820,0.00005873,-0.00002373,-0.00006
 971,-0.00000499,0.00004009,-0.00013887,-0.00001681,0.00004935,0.000076
 84,-0.00002519,-0.00001212,-0.00001899,-0.00000449,-0.00004995,-0.0000
 3758,0.00001803,0.00000550,-0.00004789,0.00000140,-0.00023668,0.000135
 83,0.00007519,0.00046420,0.00128182,-0.00703275,0.00099284,0.00013948,
 -0.00004757,-0.00297403,-0.00054846,-0.00420386,0.00024679,-0.00054065
 ,0.00121544,0.00079687,0.00010220,0.00082739,-0.00001633,0.00003873,0.
 00005699,0.00008663,0.00002261,-0.00005787,0.00010504,0.00005819,0.000
 16160,-0.00009692,-0.00027008,0.00012222,0.00008096,0.00008629,0.00010
 904,-0.00002697,-0.00000495,-0.00003767,0.00001071,0.00000568,0.000008
 19,0.00000778,0.00001582,0.00002135,-0.00007340,0.00003122,0.00000107,
 0.00002033,0.00001264,0.00000753,-0.00008689,0.00006482,-0.00006663,0.
 00002868,0.00000425,0.00000253,-0.00000756,0.00020672,0.00001572,-0.00
 056846,-0.00078071,-0.00015718,0.00024197,0.00012874,-0.00009763,-0.00
 004998,-0.00016814,0.00011738,0.00000108,0.00001371,0.00001287,0.00000
 291,0.00000638,0.00000342,0.00001584,0.00001386,-0.00000356,-0.0000009
 3,0.00005988,0.00005695,-0.00000044,-0.00000886,0.00000441,0.00012875,
 0.00075034,-0.00002426,0.00770937,0.00001996,0.00097888,-0.00211252,0.
 00333801,0.00155255,-0.00306189,-0.00357953,-0.00015827,-0.07783886,-0
 .21851821,0.12531880,-0.00072107,-0.00082234,-0.00061395,-0.00012175,0
 .00006334,0.00035272,-0.00040764,-0.00019041,-0.00083996,0.08880167,0.
 24342720,-0.00006436,0.00002475,0.00000282,0.00000336,0.00000281,-0.00
 001403,0.00003844,-0.00001606,-0.00001920,-0.00008950,0.00008361,0.000
 09122,0.00001058,-0.00000554,0.00000882,0.00001692,-0.00001141,0.00000
 821,0.00001885,-0.00002672,-0.00001354,-0.00001909,0.00000162,0.000004
 13,0.00009766,-0.00020425,-0.00013185,-0.00004081,0.00078759,0.0008798
 4,0.00006896,-0.00016911,-0.00018980,-0.00049798,-0.00032542,-0.000357
 66,0.00047889,-0.00056049,-0.00019227,-0.00032439,0.00029102,-0.000100
 02,0.00012840,-0.00006634,0.00000348,0.00019166,-0.00020878,0.00002426
 ,-0.00003439,0.00020635,-0.00008704,0.00002027,-0.00004520,0.00005873,
 -0.00002042,-0.00006659,0.00003538,0.00004457,-0.00012907,0.00000068,-
 0.00102071,0.00070757,-0.00059603,0.00046878,0.00335624,-0.02225110,0.
 00406810,0.00313004,0.00288856,-0.00389256,-0.00434330,0.00044122,0.00
 119205,0.00076165,-0.00103317,0.00069018,0.00095180,0.00005193,-0.0000
 1811,0.00004695,0.00007773,0.00011603,-0.00005954,-0.00009154,0.000076
 85,0.00009690,0.00004681,0.00006834,-0.00009435,-0.00034118,0.00009519
 ,0.00018569,0.00020928,-0.00001584,-0.00004860,-0.00005134,0.00001677,
 0.00001365,0.00000838,0.00000515,0.00001887,0.00003000,-0.00007414,0.0
 0002568,0.00000332,0.00003356,0.00001262,0.00002077,-0.00013389,0.0000
 6831,-0.00009885,-0.00005313,-0.00006319,0.00006636,-0.00018246,0.0004
 4504,-0.00003611,-0.00085507,-0.00216464,0.00005066,0.00062956,0.00028
 925,-0.00006859,-0.00003327,-0.00037328,0.00020008,0.00000252,0.000016
 85,0.00004245,0.00000804,-0.00001168,0.00003539,0.00002704,0.00006522,
 -0.00001151,0.00004598,0.00011089,0.00007527,-0.00002371,-0.00002951,0
 .00002134,0.00046235,0.00053188,0.00148963,0.00552881,0.00271754,0.000
 73767,-0.00460357,0.00343121,0.00083230,-0.00628078,-0.01104265,0.0014
 2726,0.06442211,0.14291702,-0.10209859,-0.00008490,-0.00050879,0.00086
 784,-0.00007650,-0.00051556,0.00040817,0.00017378,0.00010200,-0.000942
 21,-0.05985402,-0.12851211,0.11859431,0.00223015,-0.00138115,-0.001254
 16,-0.00040527,0.00000710,0.00026148,-0.00068953,0.00017822,0.00018427
 ,0.00136279,-0.00090473,-0.00074030,-0.00009030,0.00004011,0.00006265,
 -0.00013544,0.00016722,0.00006526,0.00007262,0.00009630,-0.00004148,0.
 00014798,-0.00000737,-0.00002337,-0.00513465,0.00261985,-0.00237435,0.
 01000732,0.00904642,0.01509381,-0.00326810,-0.00239922,-0.00010969,-0.
 04315374,-0.00078728,-0.00749173,-0.00038714,-0.00276085,-0.00500114,0
 .00086937,0.00156026,0.00297722,-0.00036773,-0.00033185,-0.00073415,0.
 00041454,-0.00086261,-0.00105448,-0.00075399,-0.00057891,0.00102878,-0
 .00011585,0.00016199,-0.00071811,0.00057059,0.00029042,-0.00034929,0.0
 0016774,-0.00003097,-0.00033417,-0.00139569,0.00131992,0.00008317,-0.0
 0094730,-0.00395869,-0.00214179,0.00422722,0.00045615,0.00040529,-0.00
 136249,-0.00094977,0.00155369,0.00071284,-0.00021466,-0.00082493,0.000
 51525,-0.00014762,-0.00030894,0.00004983,0.00002417,0.00005015,0.00000
 668,0.00003523,0.00002106,0.00014312,-0.00003654,-0.00009462,-0.000062
 04,0.00002567,-0.00016359,0.00005670,0.00009714,0.00020481,0.00002638,
 -0.00004585,-0.00002697,-0.00000095,0.00001340,-0.00001119,-0.00000030
 ,-0.00000095,-0.00001151,-0.00006272,0.00021538,-0.00004388,0.00003690
 ,0.00005786,0.00001274,-0.00009084,0.00016488,-0.00009132,0.00005720,-
 0.00036490,-0.00010429,-0.00012884,-0.00007812,-0.00055665,-0.00014718
 ,0.00073847,0.00008830,-0.00066506,0.00029515,0.00025109,0.00047439,0.
 00002287,0.00012381,0.00005785,0.00000340,0.00004437,-0.00001320,-0.00
 007803,0.00005969,0.00015097,0.00011848,0.00030860,0.00040055,-0.00050
 923,-0.00014503,0.00003515,-0.00003888,-0.00011482,-0.00044542,-0.0008
 0916,-0.00103459,-0.23013517,-0.14034391,0.01799627,-0.08260691,-0.000
 18624,-0.00002183,-0.07727275,0.01052085,0.00221852,-0.16261761,0.0660
 9095,0.00554123,0.01407881,0.01093903,-0.00215475,-0.00523019,0.004545
 94,-0.00070315,-0.00528311,-0.00483892,0.00047010,0.01154884,-0.011413
 61,-0.00167020,0.89505493,0.00022597,-0.00012806,-0.00021237,-0.000080
 91,-0.00003624,0.00002736,-0.00002503,0.00001290,-0.00003928,-0.000102
 58,0.00011160,0.00012048,0.00000950,-0.00000843,0.00002619,0.00001955,
 0.00000293,0.00003793,0.00004591,-0.00004742,-0.00004016,-0.00002844,-
 0.00000265,0.00000937,-0.00082662,-0.00001565,-0.00060958,0.00312942,0
 .00309704,0.00351229,0.00019428,-0.00018390,-0.00026172,-0.00097107,0.
 00394153,-0.00114196,0.00076715,-0.00166112,-0.00155345,-0.00055531,0.
 00099655,0.00065369,0.00019053,-0.00019705,-0.00018895,0.00057154,-0.0
 0058277,-0.00020055,-0.00039538,0.00024413,0.00006624,0.00005005,-0.00
 003869,-0.00002094,0.00020062,-0.00004272,-0.00002996,0.00015444,-0.00
 028484,-0.00008202,-0.00230183,0.00220298,-0.00108279,-0.00279122,-0.0
 2641874,-0.03848524,0.01549289,0.01239901,0.00460674,-0.00142660,-0.00
 839336,0.00704084,0.00088628,0.00085471,-0.00242230,-0.00090593,0.0012
 6241,-0.00119259,0.00000121,0.00008098,0.00013947,0.00019499,-0.000140
 35,-0.00017103,0.00023424,0.00029984,-0.00000984,-0.00014551,0.0003160
 1,-0.00078738,0.00009828,0.00031441,0.00036931,-0.00003101,-0.00012674
 ,-0.00001535,0.00002962,0.00002473,0.00001099,0.00000662,0.00003369,0.
 00004981,-0.00009557,0.00010967,-0.00000702,0.00005968,0.00002809,0.00
 003136,-0.00232705,0.00071895,0.00035859,0.00048585,0.00040584,-0.0014
 0350,-0.00148416,0.00086578,0.00174974,-0.00280430,-0.00014845,0.00729
 538,0.00254035,0.00003214,-0.00134073,0.00048956,-0.00305627,0.0016121
 2,0.00000476,0.00009138,0.00011962,0.00007711,-0.00007544,0.00013062,0
 .00026454,0.00006098,0.00006549,0.00015020,0.00053621,0.00054454,-0.00
 013542,-0.00020760,0.00002520,-0.00049084,0.00004461,0.00134596,-0.124
 69744,-0.30833884,0.02306422,-0.05127276,0.02180806,-0.00167336,0.0207
 4803,-0.02980896,-0.00421579,0.08466974,-0.18430983,0.04668570,-0.0236
 0828,-0.02039157,0.00218718,0.00150579,-0.00062159,0.00169173,-0.00087
 603,-0.00090895,-0.00041066,0.01798540,-0.02443596,-0.01189546,0.05145
 957,0.63782473,-0.00001102,0.00004809,0.00011234,0.00000613,-0.0000019
 4,0.00001833,0.00003268,0.00002100,-0.00000514,-0.00003991,-0.00006560
 ,-0.00004943,-0.00000233,-0.00000748,-0.00002602,-0.00000012,-0.000010
 58,-0.00002107,-0.00001621,0.00003831,-0.00000472,0.00000294,-0.000002
 14,-0.00000130,0.00050868,-0.00014475,0.00031305,0.00027596,-0.0004975
 1,-0.00095830,0.00005902,0.00001916,0.00023858,0.00133735,0.00022727,0
 .00459280,-0.00040813,0.00028423,0.00082275,0.00025681,-0.00001240,-0.
 00026842,-0.00019183,-0.00003047,0.00010353,-0.00016344,0.00002733,0.0
 0013737,0.00057625,0.00011163,-0.00012961,-0.00008633,-0.00004292,0.00
 001032,-0.00037597,-0.00012429,0.00008105,-0.00012402,0.00005653,0.000
 06961,0.00025946,-0.00004801,0.00008981,0.00773175,-0.01158824,-0.0032
 7254,-0.00067964,0.00081887,0.00191321,0.00031647,0.00026874,-0.002658
 23,0.00008508,0.00037452,0.00116066,0.00005460,-0.00003521,0.00064430,
 -0.00000816,0.00001089,0.00000840,0.00001449,0.00004119,0.00000474,-0.
 00000949,-0.00002786,0.00010739,-0.00006994,-0.00011201,0.00020551,0.0
 0000795,-0.00002572,-0.00004687,-0.00000985,0.00001458,-0.00000136,-0.
 00000107,-0.00000030,0.00000089,0.00000548,0.00000893,0.00000242,-0.00
 001541,-0.00001233,-0.00001739,-0.00000541,-0.00000010,-0.00000764,0.0
 0163659,-0.00067252,0.00013827,-0.00082337,-0.00102707,0.00086276,0.00
 066078,-0.00087557,-0.00229218,0.00172906,0.00001111,-0.00274062,-0.00
 163384,-0.00079915,0.00091134,-0.00015143,0.00179654,-0.00137265,0.000
 05486,0.00001088,-0.00004876,-0.00003757,0.00002864,-0.00005283,0.0005
 5122,0.00019004,0.00012676,-0.00005038,-0.00026055,-0.00007954,0.00007
 574,0.00009783,0.00003700,-0.00074922,-0.00084456,-0.00296349,0.017958
 03,0.02364604,-0.06274630,0.00089783,0.00230666,0.01339570,-0.00843359
 ,0.00029989,0.00874837,0.01108521,0.00999867,-0.06421420,0.00181349,0.
 00171208,0.00064966,-0.00017860,0.00048165,0.00387961,-0.00039567,-0.0
 0014801,0.00242795,-0.01292239,0.01155613,-0.00063531,-0.02592466,-0.0
 3864346,0.12925969,-0.00426368,0.00266966,0.00239070,0.00082805,0.0000
 6836,-0.00048985,0.00135024,-0.00044360,-0.00033806,-0.00258111,0.0018
 6862,0.00155719,0.00017926,-0.00007813,-0.00012050,0.00027125,-0.00033
 717,-0.00014489,-0.00012457,-0.00017188,0.00007839,-0.00025829,0.00000
 495,0.00003406,0.01014900,-0.00518751,0.00453812,-0.02577360,-0.016657
 58,-0.02972155,0.00661958,0.00454890,-0.00002673,0.02731391,0.00574738
 ,0.01351216,0.00074897,0.00631983,0.01152564,-0.00163484,-0.00323990,-
 0.00594229,0.00073541,0.00066243,0.00144252,-0.00094298,0.00184520,0.0
 0222030,0.00190265,0.00142688,-0.00194444,0.00014413,-0.00039195,0.001
 36861,-0.00136949,-0.00067896,0.00070620,-0.00038124,0.00002557,0.0006
 4598,0.00425431,-0.00271120,0.00070925,0.00732399,0.00651074,0.0104303
 1,-0.00918587,-0.00426399,-0.00116589,0.00462527,0.00454824,-0.0030171
 2,-0.00235628,-0.00024780,0.00124660,-0.00142002,-0.00081823,0.0003628
 5,-0.00007233,-0.00010957,-0.00018710,-0.00013674,-0.00000994,0.000055
 73,-0.00040254,-0.00015989,-0.00001206,0.00032999,0.00006921,0.0005898
 2,-0.00024686,-0.00036479,-0.00063317,-0.00003567,0.00014739,0.0001149
 2,-0.00001950,-0.00003770,0.00000970,-0.00001006,-0.00002225,-0.000017
 71,0.00020190,-0.00045336,0.00009937,-0.00010583,-0.00012449,-0.000041
 61,0.00026304,-0.00001016,-0.00009677,0.00004138,-0.00015252,0.0001583
 7,0.00078814,-0.00039428,-0.00010426,-0.00007385,-0.00102638,-0.001015
 30,-0.00068228,0.00013820,-0.00017153,-0.00031551,0.00049968,-0.000166
 86,-0.00000651,0.00003388,-0.00006058,0.00007119,0.00020700,-0.0001236
 8,0.00092999,0.00000907,-0.00015026,-0.00022538,0.00008977,0.00006157,
 0.00006652,0.00007891,-0.00000243,-0.00024838,-0.00007663,-0.00135980,
 -0.01407738,-0.01048215,0.00104262,0.00887918,-0.00649010,0.00095262,0
 .00939468,0.00357606,-0.00039819,-0.00264970,0.00330450,-0.00666259,0.
 00078205,0.00096388,-0.00000069,0.00094521,-0.00021273,0.00008642,0.00
 105762,0.00036496,-0.00001186,0.00063041,0.00012810,0.00071407,-0.3205
 0672,0.01543609,0.00552488,0.29928024,0.00024970,-0.00017296,-0.000043
 02,-0.00000334,0.00006787,-0.00000983,-0.00009000,-0.00001324,0.000079
 78,0.00028614,-0.00030698,-0.00011960,-0.00000924,0.00000379,0.0000031
 5,0.00001935,0.00000220,0.00000544,0.00002986,0.00004562,-0.00000720,0
 .00002951,0.00000213,-0.00000551,0.00017859,-0.00003712,-0.00011910,-0
 .00172911,0.00139717,0.00167907,-0.00187912,-0.00163189,-0.00026147,0.
 00063464,-0.00653313,-0.00107160,0.00022044,-0.00082947,-0.00081083,-0
 .00004172,0.00016978,0.00022693,0.00004194,-0.00006921,-0.00007214,0.0
 0013257,-0.00024895,-0.00016003,-0.00007712,0.00021028,0.00016391,-0.0
 0000882,-0.00003895,-0.00006477,0.00003597,-0.00004224,-0.00003033,0.0
 0005739,-0.00013519,-0.00006594,-0.00076858,-0.00014148,-0.00117800,0.
 00127207,0.00052313,-0.00053349,-0.00041844,0.00015756,0.00086941,0.00
 028139,-0.00162932,-0.00124139,-0.00013275,0.00120142,0.00065579,-0.00
 016931,0.00028991,0.00017338,-0.00001978,0.00003745,0.00005915,0.00007
 620,0.00000763,-0.00002071,0.00008855,0.00007836,0.00010828,-0.0002145
 8,-0.00009187,-0.00003200,0.00008812,0.00007301,0.00011434,-0.00002946
 ,-0.00002592,-0.00004774,0.00000824,0.00000795,0.00000625,0.00000670,0
 .00001395,0.00001600,-0.00008894,0.00003079,-0.00001482,0.00002191,0.0
 0001676,0.00000913,-0.00013432,0.00003063,0.00001826,0.00002312,0.0000
 4003,-0.00007050,-0.00014894,-0.00006026,0.00000622,-0.00008606,-0.000
 06986,-0.00008827,0.00018543,0.00000051,-0.00006024,0.00004742,-0.0001
 4396,0.00011233,-0.00000330,0.00000013,0.00001187,0.00000092,-0.000025
 58,0.00005017,-0.00003300,0.00018261,0.00002551,0.00002902,-0.00000017
 ,0.00000925,-0.00000644,-0.00001745,0.00000295,-0.00001978,0.00002010,
 0.00007759,-0.02626153,0.01007427,-0.00018256,-0.00446786,-0.00414582,
 0.00104387,0.00258856,-0.00635001,-0.00000160,0.02344761,0.00800085,-0
 .00084036,0.00026110,0.00005516,-0.00037317,-0.00109646,0.00085055,-0.
 00012178,0.00102843,0.00078656,0.00021250,-0.00024187,-0.00007694,0.00
 009705,0.01274766,-0.07810934,0.00155333,-0.00593868,0.07656914,-0.000
 14568,0.00000262,-0.00022061,-0.00000320,0.00001731,-0.00002231,0.0000
 0761,-0.00004644,-0.00002644,-0.00012771,0.00019595,0.00022475,0.00001
 348,0.00000693,0.00005070,-0.00000508,0.00000502,0.00001991,0.00002546
 ,-0.00006343,0.00001313,-0.00001450,-0.00000295,0.00000287,-0.00092908
 ,0.00025302,-0.00027379,-0.00451558,-0.00040708,-0.00076780,0.00029178
 ,0.00033141,-0.00032650,0.00423822,-0.00069215,-0.00650497,0.00076601,
 0.00009791,0.00004481,-0.00032633,-0.00038261,-0.00063296,0.00039442,0
 .00012154,0.00010296,0.00002555,0.00010484,0.00008571,-0.00033531,0.00
 006654,-0.00011462,0.00008104,-0.00000877,0.00012090,0.00016917,0.0000
 3415,0.00003143,0.00008237,-0.00004334,0.00000309,-0.00031889,-0.00087
 907,-0.00066093,0.00134320,0.00071692,0.00198308,-0.00090048,0.0004281
 2,-0.00025278,-0.00060482,-0.00059411,0.00136043,0.00019209,-0.0003189
 1,-0.00071541,0.00007233,0.00018605,-0.00028782,-0.00000243,-0.0000049
 5,-0.00000829,-0.00000261,-0.00002907,-0.00000618,-0.00000756,0.000015
 75,-0.00004588,0.00006919,0.00003193,-0.00012308,-0.00000268,0.0000278
 8,0.00003447,-0.00000001,-0.00000972,-0.00000646,0.00000061,-0.0000016
 5,0.00000055,-0.00000183,-0.00000414,0.00000030,0.00001031,0.00000201,
 0.00002750,0.00000122,-0.00000453,0.00000761,-0.00000378,-0.00001467,-
 0.00002952,-0.00012543,0.00019868,-0.00002282,0.00062884,0.00003578,0.
 00015902,0.00019213,-0.00018235,-0.00032334,-0.00005430,0.00006376,0.0
 0001488,-0.00008963,0.00005591,0.00002976,-0.00004334,-0.00002239,0.00
 001258,0.00001189,0.00001082,-0.00001154,-0.00038144,-0.00013116,-0.00
 063309,-0.00006826,0.00000338,-0.00001843,-0.00001491,0.00000801,0.000
 00570,-0.00003559,0.00000895,-0.00015836,0.00134615,-0.00159237,-0.001
 59730,0.00045207,0.00019929,0.00459747,-0.00078300,0.00088862,0.000726
 53,0.00069070,-0.00260864,-0.00647262,-0.00010363,-0.00046538,-0.00321
 825,-0.00001339,0.00012530,0.00154210,-0.00018648,0.00013799,0.0022060
 7,-0.00017691,-0.00068917,-0.00038342,0.00726911,0.00455953,-0.0264604
 3,-0.00805112,0.00025715,0.03691762\\0.00000036,0.00000019,-0.00000155
 ,0.00000075,0.00000135,0.00000007,-0.00000009,0.00000155,-0.00000019,0
 .00000129,0.00000165,-0.00000002,0.00000093,0.00000172,0.00000017,0.00
 000086,0.00000092,-0.00000101,0.00000115,0.00000208,0.00000053,0.00000
 043,0.00000133,0.00000136,0.00000149,0.00000176,0.00000024,-0.00000065
 ,-0.00000005,0.00000228,-0.00000033,0.00000049,0.00000233,0.00000049,-
 0.00000197,-0.00000011,0.00000030,0.00000236,-0.00000059,-0.00000125,-
 0.00000356,0.00000054,0.00000040,-0.00000002,0.00000065,-0.00000060,-0
 .00000022,0.00000112,-0.00000185,-0.00000077,-0.00000049,-0.00000105,-
 0.00000101,0.00000071,-0.00000049,-0.00000104,-0.00000149,0.00000072,0
 .00000092,-0.00000008,-0.00001346,0.00000813,-0.00000178,0.00000016,0.
 00000144,-0.00000049,0.00001258,-0.00000879,0.00000171,0.00000063,0.00
 000027,-0.00000084,0.00000041,0.00000033,0.00000128,-0.00000053,-0.000
 00078,0.00000131,-0.00000080,-0.00000060,0.00000281,-0.00000100,-0.000
 00064,0.00000227,-0.00000105,0.00000056,0.00000143,-0.00000063,-0.0000
 0058,0.00000305,0.00000002,0.00000043,0.00000233,-0.00000100,0.0000000
 3,0.00000274,-0.00000115,-0.00000039,0.00000286,-0.00000131,-0.0000010
 9,0.00000245,-0.00000038,0.00000271,0.,-0.00000051,0.00000039,0.000002
 49,-0.00000079,-0.00000153,-0.00000227,0.00000043,-0.00000092,-0.00000
 193,0.00000080,-0.00000107,0.00000060,-0.00000003,-0.00000040,-0.00000
 263,-0.00000091,-0.00000119,-0.00000047,-0.00000034,-0.00000203,-0.000
 00135,-0.00000036,-0.00000214,-0.00000213,-0.00000022,-0.00000180,-0.0
 0000173,-0.00000006,-0.00000169,-0.00000118,0.00000083,-0.00000078,-0.
 00000020,-0.00000046,-0.00000201,-0.00000179,-0.00000010,0.00000020,0.
 00000201,0.00000116,0.00000148,-0.00000242,0.00000045,0.00000158,-0.00
 000213,0.00000064,-0.00000112,-0.00000219,-0.00000131,0.00000049,0.000
 00120,0.00000084,0.00000065,-0.00000200,0.00000092,0.00000023,-0.00000
 228,0.00000057,0.00000039,-0.00000121,0.00000035,-0.00000012,-0.000000
 90,0.00000027,-0.00000092,-0.00000065,0.00000246,0.00000361,-0.0000024
 2\\\@


 IT IS BETTER TO THINK YOU ARE HALF DRY THAN TO KNOW YOU
 ARE ALL WET.  -- SNOOPY
 Job cpu time:       0 days 17 hours  0 minutes 48.4 seconds.
 File lengths (MBytes):  RWF=   2999 Int=      0 D2E=      0 Chk=     38 Scr=      1
 Normal termination of Gaussian 09 at Thu Jan 26 00:18:50 2017.
