[running at reduced cpu priority]
Job ModelCatalyst-8BindtoN-5-TS-fine-grid-uf-acc-sol_4_co started on tethys at Wed Jan 25 10:54:23 2017
jobid: tethys-0-588883dd 
Jaguar version 8.4, release  16
Molecular Point Group: C1      
Point Group used: C1
pre (input checking) done.
onee (1-electron integrals) done.
Job ModelCatalyst-8BindtoN-5-TS-fine-grid-uf-acc-sol_4_co completed on tethys at Wed Jan 25 10:54:29 2017
