Job Toru-SiPh3-NTf-Type-II-E-Sulfonyl-1-chkp-scan-207-unrestrained.1-SPE started on tethys at Tue Mar 14 13:06:58 2017
jobid: tethys-0-58c7eaef

  +--------------------------------------------------------------------+
  |  Jaguar version 9.5, release  11                                   |
  |                                                                    |
  |  Copyright Schrodinger, Inc.                                       |
  |  All Rights Reserved.                                              |
  |                                                                    |
  |  The following have contributed to Jaguar (listed alphabetically): |
  |  Mike Beachy, Art Bochevarov, Dale Braden, Yixiang Cao,            |
  |  Chris Cortis, Rich Friesner, Bill Goddard, Hod Greeley,           |
  |  Tom Hughes, Leif Jacobson, Jean-Marc Langlois,                    |
  |  Daniel Mainz, Rob Murphy, Dean Philipp, Tom Pollard,              |
  |  Murco Ringnalda, Mark Watson, Haoyu Yu.                           |
  |                                                                    |
  |  Use of this program should be acknowledged in publications as:    |
  |                                                                    |
  |  Jaguar, version 9.5, Schrodinger, Inc., New York, NY, 2017.       |
  |                                                                    |
  |  A. D. Bochevarov, E. Harder, T. F. Hughes, J. R. Greenwood,       |
  |  D. A. Braden, D. M. Philipp, D. Rinaldo, M. D. Halls,             |
  |  J. Zhang, R. A. Friesner, "Jaguar: A High-Performance Quantum     |
  |  Chemistry Software Program with Strengths in Life and Materials   |
  |  Sciences", Int. J. Quantum Chem., 2013, 113(18), 2110-2142.       |
  +--------------------------------------------------------------------+
  
  start of program pre
  
  Job name: Toru-SiPh3-NTf-Type-II-E-Sulfonyl-1-chkp-scan-207-unrestrained.1-SPE
  Executables used: /usr/local/shared/schrodinger/current/jaguar-v9.5/bin/Linux-x86_64
  Temporary files : /scratch/ab2144/Toru-SiPh3-NTf-Type-II-E-Sulfonyl-1-chkp-scan-207-unrestrained.1-SPE
  Maestro file (input):  Toru-SiPh3-NTf-Type-II-E-Sulfonyl-1-chkp-scan-207-unrestrained.1-SPE.mae
  Maestro file (output): Toru-SiPh3-NTf-Type-II-E-Sulfonyl-1-chkp-scan-207-unrestrained.1-SPE.01.mae
  
  basis set:             6-31g**                         
  net molecular charge:    0
  multiplicity:            1
  
  keygrid settings 
    wispc.....   7.500E-01
    ldens.....   0
    denspc....   7.500E-01
  
   grid     daf set  nls  grid set  Q type
  ------    -------  ---  --------  ------
  coarse       1      1       1        1
  medium       2      2       2        1
  fine         3      2       3        0
  ultrafine    4      2       4        1
  charge       0      1      -1        1
  gradient     5      2       4        1
  density      0      1       0        0
  DFT-fine     0      1     -13        0
  DFT-med.     0      1     -13        0
  DFT-grad     0      1     -13        0
  DFT-der2     0      1       0        0
  DFT-cphf     0      1       0        0
  LMP2-enrg    4      2       4        1
  LMP2-grad    5      2       2        1
  DFT-cphf2    0      1       0        0
  PBF-dens     0      1       0        0
  plotting     0      1       0        0
  Rel-grad     0      1     -17        0
  
  idftgrdm  100
  ndftgrdm   50    0    0
  idftgrdf  111
  ndftgrdf   85    0    0
  idftgrdg  111
  ndftgrdg   80    3    0
  idftgrdu  433
  ndftgrdu  105    0    0
  idftgrdd  433
  ndftgrdd  105    0    0
  idftgrdc  433
  ndftgrdc   26    0    0
  idftgrdp  433
  ndftgrdp   18    0    0
  
  number of basis functions....         1680
  
 Input geometry:
                                   angstroms
  atom               x                 y                 z
  C1           -0.3246000000     -5.7127000000     -1.2890000000 
  C2            0.7358000000     -4.7143000000     -0.9678000000 
  C3           -0.0284000000     -7.0145000000     -1.3741000000 
  C4            1.9852000000     -5.1571000000     -0.7075000000 
  C5            0.4380000000     -3.2476000000     -0.8890000000 
  C6            2.3045000000     -6.6002000000     -0.8117000000 
  C7            3.0290000000     -4.2132000000     -0.2776000000 
  C8            1.3502000000     -7.4784000000     -1.1347000000 
  C9            1.3736000000     -2.4038000000     -0.3730000000 
  C10          -0.8960000000     -2.7513000000     -1.3162000000 
  C11           2.7402000000     -2.9208000000     -0.0789000000 
  O12           1.1834000000     -1.0408000000     -0.2937000000 
  Si13          4.0586000000     -1.7573000000      0.5413000000 
  C14          -1.3959000000     -2.9485000000     -2.5568000000 
  C15          -1.7491000000     -2.1246000000     -0.2803000000 
  C16          -2.8357000000     -2.6827000000     -2.8151000000 
  C17          -0.5750000000     -3.4459000000     -3.6874000000 
  C18          -3.6345000000     -2.2632000000     -1.8227000000 
  C19          -3.3685000000     -2.9379000000     -4.1675000000 
  C20          -3.0729000000     -1.9761000000     -0.4838000000 
  Si21         -4.2055000000     -1.3321000000      0.8517000000 
  O22          -1.1475000000     -1.6071000000      0.8373000000 
  C23          -1.1279000000     -3.6492000000     -4.8890000000 
  C24          -2.5638000000     -3.3914000000     -5.1353000000 
  P25          -0.1058000000     -0.3996000000      0.4827000000 
  O26           0.2756000000      0.2857000000      1.7579000000 
  N27          -0.8834000000      0.5076000000     -0.6294000000 
  C28           5.7104000000     -2.6009000000      0.6705000000 
  C29           4.1316000000     -0.3543000000     -0.6787000000 
  C30           3.6357000000     -1.1886000000      2.2617000000 
  C31          -4.4468000000      0.5060000000      0.6626000000 
  C32          -5.8393000000     -2.2123000000      0.6936000000 
  C33          -3.4509000000     -1.7438000000      2.5073000000 
  C34           6.7490000000     -2.2325000000     -0.0984000000 
  C35           5.8936000000     -3.6727000000      1.6789000000 
  C36           4.0158000000      0.9239000000     -0.2867000000 
  C37           4.2691000000     -0.6632000000     -2.1222000000 
  C38           4.4932000000     -0.4097000000      2.9413000000 
  C39           2.3882000000     -1.6458000000      2.9236000000 
  C40          -4.0596000000      1.1444000000     -0.4546000000 
  C41          -5.1083000000      1.2745000000      1.7459000000 
  C42          -7.0042000000     -1.5464000000      0.7751000000 
  C43          -5.8560000000     -3.6734000000      0.4341000000 
  C44          -3.3343000000     -3.0247000000      2.8978000000 
  C45          -2.8700000000     -0.6742000000      3.3561000000 
  C46           8.0554000000     -2.9090000000      0.0446000000 
  C47           8.2119000000     -3.8829000000      0.9490000000 
  C48           7.0786000000     -4.2815000000      1.8080000000 
  C49           4.0423000000      2.0148000000     -1.2840000000 
  C50           4.1594000000      1.7302000000     -2.5861000000 
  C51           4.2797000000      0.3253000000     -3.0254000000 
  C52           4.1749000000      0.0238000000      4.3182000000 
  C53           3.0306000000     -0.3605000000      4.8952000000 
  C54           2.0967000000     -1.2411000000      4.1659000000 
  C55          -4.2810000000      2.5991000000     -0.5952000000 
  C56          -4.8666000000      3.2877000000      0.3907000000 
  C57          -5.2994000000      2.5930000000      1.6191000000 
  C58          -8.2865000000     -2.2685000000      0.6374000000 
  C59          -8.2938000000     -3.5882000000      0.4182000000 
  C60          -7.0189000000     -4.3238000000      0.3062000000 
  C61          -2.6648000000     -3.3601000000      4.1716000000 
  C62          -2.1508000000     -2.3896000000      4.9348000000 
  C63          -2.2540000000     -0.9820000000      4.5043000000 
  C64           1.9619000000      4.5673000000      4.5753000000 
  C65           1.0559000000      4.9358000000      3.5809000000 
  C66           1.1413000000      4.3732000000      2.2966000000 
  C67           2.1371000000      3.4214000000      2.0244000000 
  C68           3.0494000000      3.0769000000      3.0146000000 
  C69           2.9636000000      3.6412000000      4.2909000000 
  C70           0.1974000000      4.8470000000      1.2663000000 
  N71           0.5365000000      4.7779000000     -0.0639000000 
  S72          -0.2560000000      5.8831000000     -1.1213000000 
  O73          -1.6820000000      5.5493000000     -1.2209000000 
  O74           0.1260000000      7.2213000000     -0.6700000000 
  C75           0.5665000000      5.4280000000     -2.6690000000 
  C76          -0.2032000000      4.9145000000     -3.7072000000 
  C77           0.4815000000      4.5805000000     -4.8769000000 
  C78           1.8608000000      4.7675000000     -4.9295000000 
  C79           2.5174000000      5.2864000000     -3.8098000000 
  N80           1.8787000000      5.6224000000     -2.6852000000 
  N81          -1.1142000000      2.5632000000      2.3093000000 
  C82          -1.5212000000      2.7820000000      3.5577000000 
  C83          -2.2719000000      3.9801000000      3.6151000000 
  C84          -2.2889000000      4.4911000000      2.3311000000 
  C85          -1.4727000000      3.6511000000      1.5021000000 
  H86          -1.3506000000     -5.4058000000     -1.4386000000 
  H87          -0.8035000000     -7.7335000000     -1.6063000000 
  H88           3.3120000000     -6.9498000000     -0.6231000000 
  H89           4.0235000000     -4.5946000000     -0.0949000000 
  H90           1.5838000000     -8.5327000000     -1.2084000000 
  H91           0.4844000000     -3.6312000000     -3.5629000000 
  H92          -4.6886000000     -2.0932000000     -2.0073000000 
  H93          -4.4153000000     -2.7613000000     -4.3846000000 
  H94          -0.5122000000     -4.0061000000     -5.7047000000 
  H95          -2.9680000000     -3.5738000000     -6.1227000000 
  H96           6.6545000000     -1.4397000000     -0.8270000000 
  H97           5.0680000000     -3.9677000000      2.3148000000 
  H98           3.8941000000      1.1749000000      0.7540000000 
  H99           4.3532000000     -1.6912000000     -2.4523000000 
  H100          5.4230000000     -0.0850000000      2.4905000000 
  H101          1.7020000000     -2.3062000000      2.4124000000 
  H102         -3.5958000000      0.6100000000     -1.2721000000 
  H103         -5.4375000000      0.7714000000      2.6465000000 
  H104         -7.0316000000     -0.4802000000      0.9442000000 
  H105         -4.9287000000     -4.2201000000      0.3230000000 
  H106         -3.7054000000     -3.8315000000      2.2834000000 
  H107         -2.9094000000      0.3570000000      3.0407000000 
  H108          8.8857000000     -2.6128000000     -0.5834000000 
  H109          9.1685000000     -4.3780000000      1.0551000000 
  H110          7.2099000000     -5.0649000000      2.5431000000 
  H111          3.9500000000      3.0434000000     -0.9596000000 
  H112          4.1652000000      2.5270000000     -3.3186000000 
  H113          4.3733000000      0.0975000000     -4.0792000000 
  H114          4.8639000000      0.6648000000      4.8528000000 
  H115          2.7914000000     -0.0346000000      5.8992000000 
  H116          1.1804000000     -1.5663000000      4.6420000000 
  H117         -3.9674000000      3.1069000000     -1.4978000000 
  H118         -5.0233000000      4.3538000000      0.2907000000 
  H119         -5.7751000000      3.1522000000      2.4142000000 
  H120         -9.2199000000     -1.7260000000      0.7145000000 
  H121         -9.2323000000     -4.1177000000      0.3163000000 
  H122         -7.0275000000     -5.3883000000      0.1105000000 
  H123         -2.5839000000     -4.3942000000      4.4805000000 
  H124         -1.6533000000     -2.6340000000      5.8643000000 
  H125         -1.8207000000     -0.2022000000      5.1163000000 
  H126          1.8920000000      5.0147000000      5.5621000000 
  H127          0.2937000000      5.6794000000      3.7905000000 
  H128          2.1975000000      2.9606000000      1.0452000000 
  H129          3.8414000000      2.3735000000      2.7908000000 
  H130          3.6807000000      3.3599000000      5.0563000000 
  H131         -0.2531000000      5.8038000000      1.5119000000 
  H132         -1.2652000000      4.7527000000     -3.5798000000 
  H133         -0.0555000000      4.1656000000     -5.7236000000 
  H134          2.4274000000      4.5083000000     -5.8177000000 
  H135          3.5942000000      5.4354000000     -3.8135000000 
  H136         -0.5551000000      1.7250000000      2.0225000000 
  H137         -1.2644000000      2.0962000000      4.3530000000 
  H138         -2.7305000000      4.3938000000      4.5015000000 
  H139         -2.7793000000      5.3895000000      1.9809000000 
  H140         -1.6443000000      3.4778000000      0.4461000000 
  S141         -0.2920000000      1.5691000000     -1.6128000000 
  O142          0.9889000000      2.1998000000     -1.1716000000 
  C143          0.1655000000      0.6501000000     -3.1822000000 
  O144         -1.3332000000      2.5014000000     -2.0683000000 
  F145          1.0975000000     -0.2830000000     -2.9719000000 
  F146         -0.9259000000      0.0580000000     -3.6831000000 
  F147          0.6340000000      1.5214000000     -4.0891000000 
  H148          0.7995000000      3.8730000000     -0.4939000000 
   
  principal moments of inertia:
        amu*angstrom^2:    22976.61061    23473.01093    30314.07494
                g*cm^2: 3.81535548E-36 3.89778468E-36 5.03376994E-36
   
  rotational constants:
               cm^(-1):      0.00073369      0.00071817      0.00055610
                   GHz:      0.02199537      0.02153022      0.01667143
   
  Molecular weight:    1308.28 amu
   
  Stoichiometry: Si2C73PN4H56S2O7F3
[running at reduced cpu priority]
  Molecular Point Group: C1      
  Point Group used: C1
  
  nuclear repulsion energy.......   20899.165411778 hartrees
 
 Non-default options chosen:
   SCF calculation type: DFT(m06-2x)                 
   DFT=M06-2X
   Solvation energy will be computed using PBF
     -solute cavity energy will not be included
     -surface area terms will not be included
   Highest accuracy cutoffs used in SCF
   Solvent: other                                                           
   Internal dielectric constant:    1.000
   Continuum dielectric constant:   2.380
   Solvent probe molecule radius:   2.760
  
 Temporary integer options set:
     73=  2
  
  atom       vdw   vdw2    cov     mass  grid  daf  charge   basis
  C1        1.949  1.900  0.770   12.000    Y    Y      Y    6-31g**
  C2        1.949  1.900  0.770   12.000    Y    Y      Y    6-31g**
  C3        1.949  1.900  0.770   12.000    Y    Y      Y    6-31g**
  C4        1.949  1.900  0.770   12.000    Y    Y      Y    6-31g**
  C5        1.949  1.900  0.770   12.000    Y    Y      Y    6-31g**
  C6        1.949  1.900  0.770   12.000    Y    Y      Y    6-31g**
  C7        1.949  1.900  0.770   12.000    Y    Y      Y    6-31g**
  C8        1.949  1.900  0.770   12.000    Y    Y      Y    6-31g**
  C9        1.949  1.900  0.770   12.000    Y    Y      Y    6-31g**
  C10       1.949  1.900  0.770   12.000    Y    Y      Y    6-31g**
  C11       1.949  1.900  0.770   12.000    Y    Y      Y    6-31g**
  O12       1.702  1.600  0.730   15.995    Y    Y      Y    6-31g**
  Si13      2.217  2.147  1.110   27.977    Y    Y      Y    6-31g**
  C14       1.949  1.900  0.770   12.000    Y    Y      Y    6-31g**
  C15       1.949  1.900  0.770   12.000    Y    Y      Y    6-31g**
  C16       1.949  1.900  0.770   12.000    Y    Y      Y    6-31g**
  C17       1.949  1.900  0.770   12.000    Y    Y      Y    6-31g**
  C18       1.949  1.900  0.770   12.000    Y    Y      Y    6-31g**
  C19       1.949  1.900  0.770   12.000    Y    Y      Y    6-31g**
  C20       1.949  1.900  0.770   12.000    Y    Y      Y    6-31g**
  Si21      2.217  2.147  1.110   27.977    Y    Y      Y    6-31g**
  O22       1.702  1.600  0.730   15.995    Y    Y      Y    6-31g**
  C23       1.949  1.900  0.770   12.000    Y    Y      Y    6-31g**
  C24       1.949  1.900  0.770   12.000    Y    Y      Y    6-31g**
  P25       2.147  2.074  1.060   30.974    Y    Y      Y    6-31g**
  O26       1.702  1.600  0.730   15.995    Y    Y      Y    6-31g**
  N27       1.831  1.600  0.750   14.003    Y    Y      Y    6-31g**
  C28       1.949  1.900  0.770   12.000    Y    Y      Y    6-31g**
  C29       1.949  1.900  0.770   12.000    Y    Y      Y    6-31g**
  C30       1.949  1.900  0.770   12.000    Y    Y      Y    6-31g**
  C31       1.949  1.900  0.770   12.000    Y    Y      Y    6-31g**
  C32       1.949  1.900  0.770   12.000    Y    Y      Y    6-31g**
  C33       1.949  1.900  0.770   12.000    Y    Y      Y    6-31g**
  C34       1.949  1.900  0.770   12.000    Y    Y      Y    6-31g**
  C35       1.949  1.900  0.770   12.000    Y    Y      Y    6-31g**
  C36       1.949  1.900  0.770   12.000    Y    Y      Y    6-31g**
  C37       1.949  1.900  0.770   12.000    Y    Y      Y    6-31g**
  C38       1.949  1.900  0.770   12.000    Y    Y      Y    6-31g**
  C39       1.949  1.900  0.770   12.000    Y    Y      Y    6-31g**
  C40       1.949  1.900  0.770   12.000    Y    Y      Y    6-31g**
  C41       1.949  1.900  0.770   12.000    Y    Y      Y    6-31g**
  C42       1.949  1.900  0.770   12.000    Y    Y      Y    6-31g**
  C43       1.949  1.900  0.770   12.000    Y    Y      Y    6-31g**
  C44       1.949  1.900  0.770   12.000    Y    Y      Y    6-31g**
  C45       1.949  1.900  0.770   12.000    Y    Y      Y    6-31g**
  C46       1.949  1.900  0.770   12.000    Y    Y      Y    6-31g**
  C47       1.949  1.900  0.770   12.000    Y    Y      Y    6-31g**
  C48       1.949  1.900  0.770   12.000    Y    Y      Y    6-31g**
  C49       1.949  1.900  0.770   12.000    Y    Y      Y    6-31g**
  C50       1.949  1.900  0.770   12.000    Y    Y      Y    6-31g**
  C51       1.949  1.900  0.770   12.000    Y    Y      Y    6-31g**
  C52       1.949  1.900  0.770   12.000    Y    Y      Y    6-31g**
  C53       1.949  1.900  0.770   12.000    Y    Y      Y    6-31g**
  C54       1.949  1.900  0.770   12.000    Y    Y      Y    6-31g**
  C55       1.949  1.900  0.770   12.000    Y    Y      Y    6-31g**
  C56       1.949  1.900  0.770   12.000    Y    Y      Y    6-31g**
  C57       1.949  1.900  0.770   12.000    Y    Y      Y    6-31g**
  C58       1.949  1.900  0.770   12.000    Y    Y      Y    6-31g**
  C59       1.949  1.900  0.770   12.000    Y    Y      Y    6-31g**
  C60       1.949  1.900  0.770   12.000    Y    Y      Y    6-31g**
  C61       1.949  1.900  0.770   12.000    Y    Y      Y    6-31g**
  C62       1.949  1.900  0.770   12.000    Y    Y      Y    6-31g**
  C63       1.949  1.900  0.770   12.000    Y    Y      Y    6-31g**
  C64       1.949  1.900  0.770   12.000    Y    Y      Y    6-31g**
  C65       1.949  1.900  0.770   12.000    Y    Y      Y    6-31g**
  C66       1.949  1.900  0.770   12.000    Y    Y      Y    6-31g**
  C67       1.949  1.900  0.770   12.000    Y    Y      Y    6-31g**
  C68       1.949  1.900  0.770   12.000    Y    Y      Y    6-31g**
  C69       1.949  1.900  0.770   12.000    Y    Y      Y    6-31g**
  C70       1.949  1.900  0.770   12.000    Y    Y      Y    6-31g**
  N71       1.831  1.600  0.750   14.003    Y    Y      Y    6-31g**
  S72       2.070  1.900  1.020   31.972    Y    Y      Y    6-31g**
  O73       1.702  1.600  0.730   15.995    Y    Y      Y    6-31g**
  O74       1.702  1.600  0.730   15.995    Y    Y      Y    6-31g**
  C75       1.949  1.900  0.770   12.000    Y    Y      Y    6-31g**
  C76       1.949  1.900  0.770   12.000    Y    Y      Y    6-31g**
  C77       1.949  1.900  0.770   12.000    Y    Y      Y    6-31g**
  C78       1.949  1.900  0.770   12.000    Y    Y      Y    6-31g**
  C79       1.949  1.900  0.770   12.000    Y    Y      Y    6-31g**
  N80       1.831  1.600  0.750   14.003    Y    Y      Y    6-31g**
  N81       1.831  1.600  0.750   14.003    Y    Y      Y    6-31g**
  C82       1.949  1.900  0.770   12.000    Y    Y      Y    6-31g**
  C83       1.949  1.900  0.770   12.000    Y    Y      Y    6-31g**
  C84       1.949  1.900  0.770   12.000    Y    Y      Y    6-31g**
  C85       1.949  1.900  0.770   12.000    Y    Y      Y    6-31g**
  H86       1.597  1.150  0.320    1.008    Y    Y      Y    6-31g**
  H87       1.597  1.150  0.320    1.008    Y    Y      Y    6-31g**
  H88       1.597  1.150  0.320    1.008    Y    Y      Y    6-31g**
  H89       1.597  1.150  0.320    1.008    Y    Y      Y    6-31g**
  H90       1.597  1.150  0.320    1.008    Y    Y      Y    6-31g**
  H91       1.597  1.150  0.320    1.008    Y    Y      Y    6-31g**
  H92       1.597  1.150  0.320    1.008    Y    Y      Y    6-31g**
  H93       1.597  1.150  0.320    1.008    Y    Y      Y    6-31g**
  H94       1.597  1.150  0.320    1.008    Y    Y      Y    6-31g**
  H95       1.597  1.150  0.320    1.008    Y    Y      Y    6-31g**
  H96       1.597  1.150  0.320    1.008    Y    Y      Y    6-31g**
  H97       1.597  1.150  0.320    1.008    Y    Y      Y    6-31g**
  H98       1.597  1.150  0.320    1.008    Y    Y      Y    6-31g**
  H99       1.597  1.150  0.320    1.008    Y    Y      Y    6-31g**
  H100      1.597  1.150  0.320    1.008    Y    Y      Y    6-31g**
  H101      1.597  1.150  0.320    1.008    Y    Y      Y    6-31g**
  H102      1.597  1.150  0.320    1.008    Y    Y      Y    6-31g**
  H103      1.597  1.150  0.320    1.008    Y    Y      Y    6-31g**
  H104      1.597  1.150  0.320    1.008    Y    Y      Y    6-31g**
  H105      1.597  1.150  0.320    1.008    Y    Y      Y    6-31g**
  H106      1.597  1.150  0.320    1.008    Y    Y      Y    6-31g**
  H107      1.597  1.150  0.320    1.008    Y    Y      Y    6-31g**
  H108      1.597  1.150  0.320    1.008    Y    Y      Y    6-31g**
  H109      1.597  1.150  0.320    1.008    Y    Y      Y    6-31g**
  H110      1.597  1.150  0.320    1.008    Y    Y      Y    6-31g**
  H111      1.597  1.150  0.320    1.008    Y    Y      Y    6-31g**
  H112      1.597  1.150  0.320    1.008    Y    Y      Y    6-31g**
  H113      1.597  1.150  0.320    1.008    Y    Y      Y    6-31g**
  H114      1.597  1.150  0.320    1.008    Y    Y      Y    6-31g**
  H115      1.597  1.150  0.320    1.008    Y    Y      Y    6-31g**
  H116      1.597  1.150  0.320    1.008    Y    Y      Y    6-31g**
  H117      1.597  1.150  0.320    1.008    Y    Y      Y    6-31g**
  H118      1.597  1.150  0.320    1.008    Y    Y      Y    6-31g**
  H119      1.597  1.150  0.320    1.008    Y    Y      Y    6-31g**
  H120      1.597  1.150  0.320    1.008    Y    Y      Y    6-31g**
  H121      1.597  1.150  0.320    1.008    Y    Y      Y    6-31g**
  H122      1.597  1.150  0.320    1.008    Y    Y      Y    6-31g**
  H123      1.597  1.150  0.320    1.008    Y    Y      Y    6-31g**
  H124      1.597  1.150  0.320    1.008    Y    Y      Y    6-31g**
  H125      1.597  1.150  0.320    1.008    Y    Y      Y    6-31g**
  H126      1.597  1.150  0.320    1.008    Y    Y      Y    6-31g**
  H127      1.597  1.150  0.320    1.008    Y    Y      Y    6-31g**
  H128      1.597  1.150  0.320    1.008    Y    Y      Y    6-31g**
  H129      1.597  1.150  0.320    1.008    Y    Y      Y    6-31g**
  H130      1.597  1.150  0.320    1.008    Y    Y      Y    6-31g**
  H131      1.597  1.150  0.320    1.008    Y    Y      Y    6-31g**
  H132      1.597  1.150  0.320    1.008    Y    Y      Y    6-31g**
  H133      1.597  1.150  0.320    1.008    Y    Y      Y    6-31g**
  H134      1.597  1.150  0.320    1.008    Y    Y      Y    6-31g**
  H135      1.597  1.150  0.320    1.008    Y    Y      Y    6-31g**
  H136      1.597  1.150  0.320    1.008    Y    Y      Y    6-31g**
  H137      1.597  1.150  0.320    1.008    Y    Y      Y    6-31g**
  H138      1.597  1.150  0.320    1.008    Y    Y      Y    6-31g**
  H139      1.597  1.150  0.320    1.008    Y    Y      Y    6-31g**
  H140      1.597  1.150  0.320    1.008    Y    Y      Y    6-31g**
  S141      2.070  1.900  1.020   31.972    Y    Y      Y    6-31g**
  O142      1.702  1.600  0.730   15.995    Y    Y      Y    6-31g**
  C143      1.949  1.900  0.770   12.000    Y    Y      Y    6-31g**
  O144      1.702  1.600  0.730   15.995    Y    Y      Y    6-31g**
  F145      1.736  1.682  0.720   18.998    Y    Y      Y    6-31g**
  F146      1.736  1.682  0.720   18.998    Y    Y      Y    6-31g**
  F147      1.736  1.682  0.720   18.998    Y    Y      Y    6-31g**
  H148      1.597  1.150  0.320    1.008    Y    Y      Y    6-31g**
  
  Peak memory usage:    768 Mb
  
  end of program pre
   
 Time(pre)  user:        0.9  user+sys:        0.9  wallclock:        1.7
  
  start of program onee
  
  smallest eigenvalue of S:    2.314E-04
  number of canonical orbitals.....         1673
  Peak memory usage:    900 Mb
  
  end of program onee
   
 Time(onee)  user:       18.2  user+sys:       18.2  wallclock:       26.1
  
  start of program hfig
  
  initial wavefunction generated automatically from atomic wavefunctions
 
  Irreducible     Total no   No of occupied orbitals 
  representation  orbitals   Shell_1  Shell_2    ...
  No Symm         1673        340
  ------------------------
  Orbital occupation/shell    1.000
 
  Peak memory usage:    833 Mb
  
  end of program hfig
   
 Time(hfig)  user:       33.9  user+sys:       33.9  wallclock:       66.7
  
  start of program probe
  
  Peak memory usage:    826 Mb
  
  end of program probe
   
 Time(probe)  user:       29.3  user+sys:       29.3  wallclock:       32.8
  
  start of program grid
  
   grid     grid set  grid #  grid sym
  ------    --------  ------  --------
  coarse        0        0        1
  medium        2        1        1
  fine          0        0        1
  ultrafine     4        2        1
  charge       -1        3        1
  gradient      4        2        1
  density       0        0        1
  DFT-fine    -13        4        1
  DFT-med.    -13        4        1
  DFT-grad    -13        4        1
  DFT-der2      0        0        1
  DFT-cphf      0        0        1
  LMP2-enrg     4        2        1
  LMP2-grad     2        1        1
  DFT-cphf2     0        0        1
  PBF-dens      0        0        1
  plotting      0        0        1
  Rel-grad    -17        0        1
  
  number of gridpoints: 
     atom        C1       C2       C3       C4       C5       C6       C7
  grid # 1       97      101       94      102      100       96       93
  grid # 2      338      360      336      366      358      336      335
  grid # 3       33       29       43       48       16       46       27
  grid # 4    48124    48124    48124    48124    48124    48124    48124
   
  number of gridpoints: 
     atom        C8       C9      C10      C11      O12     Si13      C14
  grid # 1       94       97      100      100      109      476      101
  grid # 2      336      357      354      359      432      476      354
  grid # 3       49       14       10        8       27        7        7
  grid # 4    48124    48124    48124    48124    47716    38542    48124
   
  number of gridpoints: 
     atom       C15      C16      C17      C18      C19      C20     Si21
  grid # 1       97      101       96       94       97       99      471
  grid # 2      352      363      334      329      338      361      471
  grid # 3       19       24       16       16       34        9        8
  grid # 4    48124    48124    48124    48124    48124    48124    38542
   
  number of gridpoints: 
     atom       O22      C23      C24      P25      O26      N27      C28
  grid # 1      112       93       93      450      117      109       99
  grid # 2      438      338      338      450      452      401      358
  grid # 3       55       31       38        6       67       21       10
  grid # 4    47716    48124    48124    38640    47716    47928    48124
   
  number of gridpoints: 
     atom       C29      C30      C31      C32      C33      C34      C35
  grid # 1       99      101       99      102      100       92       94
  grid # 2      356      359      357      359      359      337      335
  grid # 3        7       10       10       18       19       29       19
  grid # 4    48124    48124    48124    48124    48124    48124    48124
   
  number of gridpoints: 
     atom       C36      C37      C38      C39      C40      C41      C42
  grid # 1       92       94       92       96       92       94       93
  grid # 2      335      331      333      335      335      331      338
  grid # 3       20       12       16       18       24       12       39
  grid # 4    48124    48124    48124    48124    48124    48124    48124
   
  number of gridpoints: 
     atom       C43      C44      C45      C46      C47      C48      C49
  grid # 1       95       93       95       94       94       93       94
  grid # 2      335      335      334      335      335      335      332
  grid # 3       27       34       22       45       47       37       29
  grid # 4    48124    48124    48124    48124    48124    48124    48124
   
  number of gridpoints: 
     atom       C50      C51      C52      C53      C54      C55      C56
  grid # 1       93       92       93       93       93       93       93
  grid # 2      333      333      331      334      334      331      332
  grid # 3       30       20       27       35       29       28       28
  grid # 4    48124    48124    48124    48124    48124    48124    48124
   
  number of gridpoints: 
     atom       C57      C58      C59      C60      C61      C62      C63
  grid # 1       92       94       94       94       93       93       93
  grid # 2      333      336      336      336      336      335      334
  grid # 3       24       46       47       42       41       35       34
  grid # 4    48124    48124    48124    48124    48124    48124    48124
   
  number of gridpoints: 
     atom       C64      C65      C66      C67      C68      C69      C70
  grid # 1       96       96      101       96       96       96       91
  grid # 2      333      334      362      334      335      335      320
  grid # 3       41       32       31       32       41       42        6
  grid # 4    48124    48124    48124    48124    48124    48124    48124
   
  number of gridpoints: 
     atom       N71      S72      O73      O74      C75      C76      C77
  grid # 1       97      444      120      123       98       96       96
  grid # 2      350      444      482      508      357      327      327
  grid # 3       24       12      149      328       30       33       31
  grid # 4    47928    48492    47716    47716    48124    48124    48124
   
  number of gridpoints: 
     atom       C78      C79      N80      N81      C82      C83      C84
  grid # 1       96       96      113       97       94       93       93
  grid # 2      331      338      424      338      326      326      328
  grid # 3       33       35      112       12        9       12        7
  grid # 4    48124    48124    47928    47928    48124    48124    48124
   
  number of gridpoints: 
     atom       C85      H86      H87      H88      H89      H90      H91
  grid # 1       90      112      118      118      110      118      114
  grid # 2      324      433      451      446      425      453      434
  grid # 3        7      219      418      359      174      425      235
  grid # 4    48124    48426    48426    48426    48426    48426    48426
   
  number of gridpoints: 
     atom       H92      H93      H94      H95      H96      H97      H98
  grid # 1      113      118      118      118      111      112      106
  grid # 2      428      442      449      449      436      437      410
  grid # 3      207      361      407      416      241      264       82
  grid # 4    48426    48426    48426    48426    48426    48426    48426
   
  number of gridpoints: 
     atom       H99     H100     H101     H102     H103     H104     H105
  grid # 1      112      111      109      109      112      112      110
  grid # 2      435      435      425      423      432      432      426
  grid # 3      257      249      179      145      236      226      187
  grid # 4    48426    48426    48426    48426    48426    48426    48426
   
  number of gridpoints: 
     atom      H106     H107     H108     H109     H110     H111     H112
  grid # 1      111      106      118      118      118      114      114
  grid # 2      430      415      453      453      452      434      438
  grid # 3      213       93      420      424      420      251      260
  grid # 4    48426    48426    48426    48426    48426    48426    48426
   
  number of gridpoints: 
     atom      H113     H114     H115     H116     H117     H118     H119
  grid # 1      117      115      117      114      113      115      117
  grid # 2      451      442      449      437      437      443      448
  grid # 3      385      309      373      257      257      327      359
  grid # 4    48426    48426    48426    48426    48426    48426    48426
   
  number of gridpoints: 
     atom      H120     H121     H122     H123     H124     H125     H126
  grid # 1      118      118      118      118      117      113      118
  grid # 2      453      453      452      451      449      433      450
  grid # 3      419      425      419      413      374      253      407
  grid # 4    48426    48426    48426    48426    48426    48426    48426
   
  number of gridpoints: 
     atom      H127     H128     H129     H130     H131     H132     H133
  grid # 1      112      106      109      116      104      111      117
  grid # 2      434      408      421      441      415      433      450
  grid # 3      262       78      159      311      139      242      384
  grid # 4    48426    48426    48426    48426    48426    48426    48426
   
  number of gridpoints: 
     atom      H134     H135     H136     H137     H138     H139     H140
  grid # 1      117      117       99      111      116      113      106
  grid # 2      450      445      402      434      459      443      411
  grid # 3      392      371       79      220      407      282       67
  grid # 4    48426    48426    48426    48426    48426    48426    48426
   
  number of gridpoints: 
     atom      S141     O142     C143     O144     F145     F146     F147
  grid # 1      428      115       90      117      517      526      527
  grid # 2      428      454      321      468      517      526      527
  grid # 3        7       46        7       55       95      165      141
  grid # 4    48492    47716    48124    47716    47062    47062    47062
   
  number of gridpoints: 
     atom      H148    total
  grid # 1       97    18366
  grid # 2      394    57823
  grid # 3       53    19044
  grid # 4    48426  7104526
   
  Peak memory usage:    795 Mb
  
  end of program grid
   
 Time(grid)  user:     1134.1  user+sys:     1134.1  wallclock:     1193.5
  
  start of program rwr
  
  Peak memory usage:    814 Mb
  
  end of program rwr
   
 Time(rwr)  user:       70.7  user+sys:       70.7  wallclock:       80.3
  
  start of program scf
  
 number of electrons..........        680
 number of alpha electrons....        340
 number of beta electrons.....        340
 number of orbitals, total....       1673
 number of doubly-occ'd orbs..        340
 number of open shell orbs....          0
 number of occupied orbitals..        340
 number of virtual orbitals...       1333
 number of hamiltonians.......          1
 number of shells.............          1
 SCF type: DFT=M06-2X
 Energy computed with NOPS off.
  
       i  u  d  i  g                   
       t  p  i  c  r                                 RMS    maximum
       e  d  i  u  i                       energy  density   DIIS  
       r  t  s  t  d       total energy    change  change    error 
  
etot    1  N  N  1  U   -5562.71679005724           4.0E-03  9.9E-02
etot    2  N  Y  1  U   -5529.81559618886 -3.3E+01  1.9E-02  1.4E-01
etot    3  N  Y  1  U   -5284.10209189808 -2.5E+02  1.9E-02  4.4E-01
etot    4  N  Y  1  U   -5570.41368111565  2.9E+02  2.5E-03  6.8E-02
etot    5  N  Y  1  U   -5570.59180164700  1.8E-01  2.0E-03  6.5E-02
etot    6  N  Y  1  U   -5569.18765117204 -1.4E+00  1.3E-03  7.0E-02
etot    7  N  Y  1  U   -5575.26855895972  6.1E+00  4.3E-04  2.1E-02
etot    8  N  Y  1  U   -5575.52739702490  2.6E-01  1.6E-04  6.6E-03
etot    9  N  Y  1  U   -5575.54024548371  1.3E-02  7.2E-05  5.2E-03
etot   10  N  Y  1  U   -5575.54971286782  9.5E-03  2.2E-05  8.7E-04
etot   11  N  Y  1  U   -5575.55041124668  7.0E-04  1.2E-05  4.9E-04
etot   12  N  Y  1  U   -5575.55062744980  2.2E-04  6.6E-06  2.6E-04
etot   13  N  Y  1  U   -5575.55068532145  5.8E-05  3.3E-06  1.3E-04
etot   14  N  N  1  U   -5575.55070196283  1.7E-05  0.0E+00  0.0E+00
  
  
 Energy components, in hartrees:
   (A)  Nuclear repulsion............   20899.16541177803
   (E)  Total one-electron terms.....  -49325.96549077069
   (F)    Electron-nuclear...........  -54861.96447035635
   (H)    Kinetic....................    5535.99897958567
   (I)  Total two-electron terms.....   22851.24937702982
   (J)    Coulomb....................   23502.49230939300
   (K)    Exchange+Correlation.......    -651.24293236319
   (L)  Electronic energy............  -26474.71611374087  (E+I)
   (M)  -V/T.........................       2.00714445984  (-(A+F+I)/H)
   (N)  Total energy.................   -5575.55070196283  (A+L)
   (O)  Gas phase energy.............   -5575.55070196283
  
 SCFE: SCF energy: DFT(m06-2x)     -5575.55070196283 hartrees   iterations:  14
  
 
 HOMO energy:    -0.25092
 LUMO energy:    -0.06700
 
  Orbital energies (hartrees): 
   -90.16842   -90.15328   -78.20945   -67.00549   -67.00458   -25.28742
   -25.28452   -25.28376   -19.68983   -19.68677   -19.64816   -19.64522
   -19.63274   -19.62505   -19.60389   -14.82597   -14.81389   -14.79159
   -14.73784   -10.80240   -10.66310   -10.63270   -10.62536   -10.62487
   -10.61990   -10.60958   -10.60537   -10.59104   -10.58716   -10.58617
   -10.58480   -10.58301   -10.57402   -10.57218   -10.56903   -10.56772
   -10.56766   -10.56750   -10.56672   -10.56598   -10.56418   -10.56183
   -10.55991   -10.55921   -10.55739   -10.55641   -10.55142   -10.55135
   -10.55132   -10.55102   -10.55036   -10.54985   -10.54976   -10.54960
   -10.54913   -10.54909   -10.54901   -10.54798   -10.54797   -10.54769
   -10.54765   -10.54721   -10.54718   -10.54651   -10.54644   -10.54514
   -10.54496   -10.54474   -10.54419   -10.54406   -10.54404   -10.54310
   -10.54224   -10.54196   -10.54171   -10.54133   -10.54118   -10.54108
   -10.54060   -10.54055   -10.53985   -10.53923   -10.53912   -10.53887
   -10.53616   -10.53560   -10.53216   -10.53093   -10.52803   -10.52695
   -10.52584   -10.52520    -8.47930    -8.46166    -6.98886    -6.40155
    -6.40028    -6.39980    -6.38370    -6.38311    -6.38299    -5.53662
    -5.53617    -5.10749    -5.10611    -5.10478    -3.84641    -3.84604
    -3.84599    -3.84598    -3.84561    -3.84539    -1.45172    -1.36121
    -1.35925    -1.24057    -1.22803    -1.21702    -1.18343    -1.12478
    -1.11636    -1.10226    -1.08751    -1.08454    -1.06509    -0.98866
    -0.97953    -0.97399    -0.96489    -0.94364    -0.94169    -0.93742
    -0.93678    -0.93444    -0.93354    -0.92623    -0.91977    -0.90889
    -0.90454    -0.90007    -0.88805    -0.87966    -0.85515    -0.85117
    -0.84607    -0.84212    -0.84099    -0.83510    -0.83384    -0.83361
    -0.82973    -0.82879    -0.82789    -0.82757    -0.82587    -0.82426
    -0.82340    -0.82246    -0.82216    -0.81961    -0.81921    -0.80507
    -0.79917    -0.76161    -0.75697    -0.73995    -0.72802    -0.71597
    -0.70745    -0.70330    -0.69658    -0.69556    -0.69264    -0.68822
    -0.68770    -0.68101    -0.67811    -0.67602    -0.67572    -0.67553
    -0.67508    -0.67451    -0.67074    -0.66925    -0.66804    -0.66594
    -0.66405    -0.66117    -0.66015    -0.65672    -0.65464    -0.65207
    -0.64973    -0.64671    -0.63620    -0.62370    -0.61380    -0.60593
    -0.60287    -0.60040    -0.59839    -0.58718    -0.58115    -0.57943
    -0.57842    -0.57685    -0.57431    -0.57392    -0.57336    -0.57214
    -0.56297    -0.55887    -0.55709    -0.55337    -0.54905    -0.54580
    -0.54424    -0.54130    -0.53890    -0.53662    -0.53470    -0.53242
    -0.53093    -0.52630    -0.52559    -0.52383    -0.52016    -0.51693
    -0.51647    -0.51553    -0.51435    -0.51376    -0.51163    -0.51128
    -0.51052    -0.50690    -0.50398    -0.50066    -0.49987    -0.49837
    -0.49626    -0.49576    -0.49548    -0.49502    -0.49378    -0.49332
    -0.49299    -0.49261    -0.49174    -0.49043    -0.48998    -0.48768
    -0.48317    -0.48280    -0.48165    -0.48108    -0.48009    -0.47658
    -0.47638    -0.47375    -0.47358    -0.47248    -0.46769    -0.46238
    -0.46173    -0.45295    -0.44998    -0.44911    -0.44731    -0.44654
    -0.44488    -0.44140    -0.43879    -0.43701    -0.43050    -0.42738
    -0.42526    -0.42419    -0.42248    -0.42049    -0.41871    -0.41784
    -0.41648    -0.41478    -0.41442    -0.40956    -0.40805    -0.40118
    -0.39944    -0.39782    -0.39595    -0.39330    -0.39212    -0.39152
    -0.39099    -0.38877    -0.38705    -0.38619    -0.38420    -0.38384
    -0.38162    -0.37896    -0.37746    -0.37571    -0.37145    -0.36756
    -0.36310    -0.35968    -0.35400    -0.34980    -0.34532    -0.34345
    -0.34177    -0.33975    -0.33885    -0.33821    -0.33565    -0.33433
    -0.32877    -0.32601    -0.32210    -0.31848    -0.31535    -0.30412
    -0.30055    -0.29958    -0.29818    -0.29732    -0.29265    -0.29147
    -0.29021    -0.28949    -0.28755    -0.28709    -0.28657    -0.28548
    -0.28331    -0.28191    -0.27081    -0.25092    -0.06700    -0.02267
    -0.01832    -0.00214     0.00219     0.01239     0.01451     0.02064
     0.02165     0.02260
 
  Peak memory usage:   1028 Mb
  
  end of program scf
   
 Time(scf)  user:    39324.0  user+sys:    39324.0  wallclock:   137406.7
  
  start of program ch
  
  gridpoints used for charge fit        16500
    out of a possible maximum of        19044
  
   Electrostatic potential fitting constrained to reproduce
     total charge:                yes
     dipole moment:               no 
     traceless quadrupole moment: no 
     traceless octapole moment:   no 
  
  Atomic charges from electrostatic potential: 
   
 Atom       C1           C2           C3           C4           C5      
 Charge   -0.11588      0.02278     -0.16288      0.16319      0.00335
   
 Atom       C6           C7           C8           C9           C10     
 Charge   -0.20254     -0.35592     -0.12651     -0.09623     -0.13262
   
 Atom       C11          O12          Si13         C14          C15     
 Charge    0.22889     -0.14092     -0.17563      0.21400      0.18726
   
 Atom       C16          C17          C18          C19          C20     
 Charge    0.25706     -0.27305     -0.45005     -0.25764     -0.03731
   
 Atom       Si21         O22          C23          C24          P25     
 Charge    0.04747     -0.20226     -0.11177     -0.12759      0.88380
   
 Atom       O26          N27          C28          C29          C30     
 Charge   -0.58025     -0.63373      0.11403      0.11842      0.15479
   
 Atom       C31          C32          C33          C34          C35     
 Charge    0.04106     -0.03090      0.01236     -0.11700     -0.19871
   
 Atom       C36          C37          C38          C39          C40     
 Charge   -0.15574     -0.11630     -0.15712     -0.13721     -0.15364
   
 Atom       C41          C42          C43          C44          C45     
 Charge   -0.04523     -0.01879     -0.13345     -0.13399     -0.02183
   
 Atom       C46          C47          C48          C49          C50     
 Charge   -0.14996     -0.14324     -0.10201     -0.14549     -0.07831
   
 Atom       C51          C52          C53          C54          C55     
 Charge   -0.18145     -0.16179     -0.12902     -0.11102     -0.16343
   
 Atom       C56          C57          C58          C59          C60     
 Charge   -0.11668     -0.15620     -0.19624     -0.09917     -0.13958
   
 Atom       C61          C62          C63          C64          C65     
 Charge   -0.16605     -0.07864     -0.19975     -0.13064     -0.15164
   
 Atom       C66          C67          C68          C69          C70     
 Charge    0.07505     -0.10316     -0.02306     -0.16761      0.15514
   
 Atom       N71          S72          O73          O74          C75     
 Charge   -0.56640      0.62636     -0.43555     -0.40166      0.62652
   
 Atom       C76          C77          C78          C79          N80     
 Charge   -0.51727      0.23815     -0.47611      0.42801     -0.62680
   
 Atom       N81          C82          C83          C84          C85     
 Charge   -0.13179      0.01549     -0.32596     -0.10837      0.18996
   
 Atom       H86          H87          H88          H89          H90     
 Charge    0.10365      0.14389      0.14019      0.16993      0.13523
   
 Atom       H91          H92          H93          H94          H95     
 Charge    0.15566      0.22101      0.15603      0.13686      0.13291
   
 Atom       H96          H97          H98          H99          H100    
 Charge    0.09972      0.13443      0.10869      0.10894      0.12373
   
 Atom       H101         H102         H103         H104         H105    
 Charge    0.09905      0.17253      0.08548      0.06969      0.13655
   
 Atom       H106         H107         H108         H109         H110    
 Charge    0.12241      0.02908      0.13541      0.13210      0.12426
   
 Atom       H111         H112         H113         H114         H115    
 Charge    0.12799      0.09746      0.13657      0.12910      0.12175
   
 Atom       H116         H117         H118         H119         H120    
 Charge    0.12344      0.16087      0.12018      0.11600      0.14183
   
 Atom       H121         H122         H123         H124         H125    
 Charge    0.12345      0.12448      0.13443      0.11157      0.13307
   
 Atom       H126         H127         H128         H129         H130    
 Charge    0.14255      0.10855      0.08113      0.10263      0.14098
   
 Atom       H131         H132         H133         H134         H135    
 Charge    0.13786      0.24739      0.09723      0.19834      0.05392
   
 Atom       H136         H137         H138         H139         H140    
 Charge    0.29870      0.15844      0.19923      0.15072      0.09182
   
 Atom       S141         O142         C143         O144         F145    
 Charge    0.64434     -0.44735      0.43443     -0.44988     -0.10986
   
 Atom       F146         F147         H148    
 Charge   -0.13725     -0.14892      0.40900
  
  sum of atomic charges:     0.000000
   
 RMS Error   9.85E-04 hartrees
 
  Peak memory usage:    816 Mb
  
  end of program ch
   
 Time(ch)  user:       19.3  user+sys:       19.3  wallclock:       80.0
  
  start of program post
  
  Writing input files for PBF
  Peak memory usage:    759 Mb
  
  end of program post
   
 Time(post)  user:        0.8  user+sys:        0.8  wallclock:        4.2

  start of program pbf

Pbf Version 4.10

Molecular surface area:      819.16345   [A2]
Reaction field energy:       -18.45331   [kT]
  Peak memory usage: 725 Mb

  end of program pbf

 Time(pbf)  user:       10.1  user+sys:       10.2  wallclock:       39.8
  
  start of program solv
  
   number of surface charges from PBF   13856
   sum of surface charges     -0.00026
   
  nuclear repulsion energy.......   20899.165411778 hartrees
  Peak memory usage:    894 Mb
  
  end of program solv
   
 Time(solv)  user:       39.7  user+sys:       39.7  wallclock:      165.9
  
  start of program scf
  
 Energy computed with NOPS off.
  
       i  u  d  i  g                   
       t  p  i  c  r                                 RMS    maximum
       e  d  i  u  i                       energy  density   DIIS  
       r  t  s  t  d       total energy    change  change    error 
  
etot    1  N  N  1  U   -5575.58922002991           5.7E-05  1.3E-03
etot    2  N  Y  1  U   -5575.59005821293  8.4E-04  1.9E-05  1.2E-03
etot    3  N  Y  1  U   -5575.59038932486  3.3E-04  6.1E-06  5.2E-04
etot    4  N  Y  1  U   -5575.59045210693  6.3E-05  2.6E-06  1.4E-04
etot    5  N  N  1  U   -5575.59045967053  7.6E-06  0.0E+00  0.0E+00
  
  
 Energy components, in hartrees:
   (A)  Total zero-electron terms....   20901.55614665144
   (B)    Nuclear-nuclear............   20899.16541177803
   (C)    Nuclear-solvent............       2.39073487341
   (E)  Total one-electron terms.....  -49329.81970534776
   (F)    Electron-nuclear...........  -54863.45061437433
   (G)    Electron-solvent...........      -2.43172102836
   (H)    Kinetic....................    5536.06263005493
   (I)  Total two-electron terms.....   22852.67309902579
   (J)    Coulomb....................   23503.93935081910
   (K)    Exchange+Correlation.......    -651.26625179330
   (L)  Electronic energy............  -26477.14660632197  (E+I)
   (N)  Total quantum mech. energy...   -5575.59045967053  (A+L)
   (O)  Gas phase energy.............   -5575.55070196283
   (P)  Solution phase energy........   -5575.56996659305  (Q+R+S)
   (Q)    Total solute energy........   -5575.54947351558  (N-C-G)
   (R)    Total solvent energy.......      -0.02049307747  (C/2+G/2)
   (S)    Solute cavity energy.......       0.00000000000
   (U)  Reorganization energy........       0.00122844726  (Q-O)
   (V)  Solvation energy.............      -0.01926463022  (P-O)
  
 SCFE:  Solution phase energy: DFT(m06-2x)      -5575.56996659305 hartrees
        SCF iterations:   5
  
 
 HOMO energy:    -0.25299
 LUMO energy:    -0.06529
 
  Orbital energies (hartrees): 
   -90.17427   -90.15647   -78.21132   -67.00797   -67.00675   -25.29045
   -25.28779   -25.28770   -19.69169   -19.68904   -19.65306   -19.65279
   -19.63558   -19.62716   -19.60519   -14.82337   -14.81620   -14.79184
   -14.74012   -10.80586   -10.66193   -10.63342   -10.62748   -10.62223
   -10.62205   -10.60722   -10.60360   -10.58775   -10.58550   -10.58227
   -10.58131   -10.58111   -10.57196   -10.57085   -10.57044   -10.56954
   -10.56758   -10.56655   -10.56454   -10.56428   -10.56318   -10.56192
   -10.56139   -10.55983   -10.55882   -10.55875   -10.55364   -10.55339
   -10.55215   -10.55195   -10.55188   -10.55149   -10.55135   -10.55106
   -10.55099   -10.55053   -10.55013   -10.54995   -10.54989   -10.54952
   -10.54928   -10.54868   -10.54853   -10.54836   -10.54721   -10.54684
   -10.54637   -10.54628   -10.54599   -10.54548   -10.54525   -10.54466
   -10.54387   -10.54372   -10.54334   -10.54326   -10.54317   -10.54286
   -10.54242   -10.54233   -10.54211   -10.54195   -10.54078   -10.54043
   -10.53800   -10.53790   -10.53435   -10.53370   -10.52977   -10.52937
   -10.52832   -10.52735    -8.48508    -8.46475    -6.99074    -6.40727
    -6.40616    -6.40554    -6.38680    -6.38622    -6.38610    -5.53909
    -5.53834    -5.10937    -5.10800    -5.10666    -3.84887    -3.84852
    -3.84847    -3.84815    -3.84778    -3.84756    -1.45525    -1.36451
    -1.36301    -1.24702    -1.23024    -1.21966    -1.18562    -1.13189
    -1.11413    -1.10498    -1.08876    -1.08465    -1.06681    -0.99104
    -0.98187    -0.97209    -0.96709    -0.94561    -0.94447    -0.93919
    -0.93883    -0.93672    -0.93557    -0.92406    -0.92194    -0.91070
    -0.90267    -0.89842    -0.89013    -0.87788    -0.85313    -0.85283
    -0.84429    -0.84346    -0.84288    -0.83680    -0.83624    -0.83603
    -0.83171    -0.83032    -0.83004    -0.82923    -0.82802    -0.82623
    -0.82575    -0.82469    -0.82439    -0.82191    -0.82104    -0.80521
    -0.80099    -0.76387    -0.75644    -0.73796    -0.73039    -0.71576
    -0.70941    -0.70493    -0.69846    -0.69410    -0.69111    -0.68918
    -0.68658    -0.68349    -0.68014    -0.67915    -0.67821    -0.67710
    -0.67705    -0.67254    -0.67138    -0.67120    -0.66946    -0.66754
    -0.66583    -0.66264    -0.66191    -0.65813    -0.65635    -0.65167
    -0.65009    -0.64622    -0.63805    -0.62558    -0.61238    -0.60756
    -0.60499    -0.60201    -0.59998    -0.58953    -0.58279    -0.58066
    -0.57916    -0.57812    -0.57591    -0.57530    -0.57355    -0.57134
    -0.56461    -0.56061    -0.55972    -0.55672    -0.54836    -0.54712
    -0.54587    -0.54422    -0.53980    -0.53757    -0.53449    -0.53217
    -0.53090    -0.52799    -0.52622    -0.52480    -0.52248    -0.51873
    -0.51756    -0.51628    -0.51536    -0.51482    -0.51314    -0.51181
    -0.51076    -0.50848    -0.50543    -0.50201    -0.50108    -0.49981
    -0.49828    -0.49749    -0.49653    -0.49556    -0.49552    -0.49432
    -0.49422    -0.49344    -0.49201    -0.49084    -0.48904    -0.48763
    -0.48426    -0.48372    -0.48279    -0.48212    -0.48045    -0.47735
    -0.47556    -0.47489    -0.47449    -0.47071    -0.46942    -0.46410
    -0.45971    -0.45472    -0.45192    -0.45050    -0.44916    -0.44673
    -0.44479    -0.44334    -0.44060    -0.43897    -0.43228    -0.42900
    -0.42688    -0.42571    -0.42514    -0.42268    -0.42114    -0.41954
    -0.41827    -0.41733    -0.41610    -0.41119    -0.40772    -0.40283
    -0.40192    -0.40110    -0.39959    -0.39572    -0.39481    -0.39285
    -0.39253    -0.39123    -0.38870    -0.38771    -0.38650    -0.38544
    -0.38464    -0.38090    -0.38008    -0.37817    -0.37356    -0.36951
    -0.36406    -0.36044    -0.35611    -0.35186    -0.34733    -0.34543
    -0.34297    -0.34148    -0.33955    -0.33799    -0.33589    -0.33562
    -0.33098    -0.32835    -0.32433    -0.31844    -0.31366    -0.30627
    -0.30306    -0.30254    -0.30140    -0.29838    -0.29491    -0.29406
    -0.29232    -0.29136    -0.28971    -0.28920    -0.28872    -0.28667
    -0.28571    -0.28430    -0.27332    -0.25299    -0.06529    -0.02242
    -0.02035    -0.00082    -0.00009     0.01024     0.01605     0.01840
     0.01944     0.02318
 
  Peak memory usage:   1029 Mb
  
  end of program scf
   
 Time(scf)  user:    11244.7  user+sys:    11244.7  wallclock:    46851.8
  
  start of program sole
  
    SCRF                   solvation energy
  iteration          Hartrees            kcal/mol
     0               0.0000000            0.0000
     1              -0.0192646          -12.0887
  
  solvation energy not yet converged... 
  
  Peak memory usage:    813 Mb
  
  end of program sole
   
 Time(sole)  user:        0.2  user+sys:        0.2  wallclock:        0.5
  
  start of program ch
  
  gridpoints used for charge fit        16500
    out of a possible maximum of        16500
  
   Electrostatic potential fitting constrained to reproduce
     total charge:                yes
     dipole moment:               no 
     traceless quadrupole moment: no 
     traceless octapole moment:   no 
  
  Atomic charges from electrostatic potential: 
   
 Atom       C1           C2           C3           C4           C5      
 Charge   -0.11460      0.02142     -0.17187      0.16534      0.00974
   
 Atom       C6           C7           C8           C9           C10     
 Charge   -0.21136     -0.37433     -0.13133     -0.11862     -0.13732
   
 Atom       C11          O12          Si13         C14          C15     
 Charge    0.25635     -0.12260     -0.21117      0.22196      0.17210
   
 Atom       C16          C17          C18          C19          C20     
 Charge    0.25944     -0.28013     -0.46592     -0.26452     -0.01656
   
 Atom       Si21         O22          C23          C24          P25     
 Charge    0.03632     -0.17789     -0.11612     -0.13560      0.83818
   
 Atom       O26          N27          C28          C29          C30     
 Charge   -0.55819     -0.61550      0.11605      0.14308      0.15732
   
 Atom       C31          C32          C33          C34          C35     
 Charge    0.05087     -0.03815      0.00742     -0.11527     -0.20454
   
 Atom       C36          C37          C38          C39          C40     
 Charge   -0.17517     -0.12333     -0.15083     -0.12706     -0.16618
   
 Atom       C41          C42          C43          C44          C45     
 Charge   -0.04315     -0.01719     -0.13310     -0.14528     -0.01536
   
 Atom       C46          C47          C48          C49          C50     
 Charge   -0.16054     -0.15085     -0.10672     -0.15329     -0.08100
   
 Atom       C51          C52          C53          C54          C55     
 Charge   -0.19054     -0.18697     -0.11348     -0.14229     -0.16988
   
 Atom       C56          C57          C58          C59          C60     
 Charge   -0.12330     -0.16451     -0.20781     -0.10427     -0.14785
   
 Atom       C61          C62          C63          C64          C65     
 Charge   -0.17095     -0.08279     -0.21250     -0.13105     -0.16293
   
 Atom       C66          C67          C68          C69          C70     
 Charge    0.07396     -0.11487     -0.01751     -0.17540      0.15683
   
 Atom       N71          S72          O73          O74          C75     
 Charge   -0.57595      0.64634     -0.45172     -0.43028      0.63394
   
 Atom       C76          C77          C78          C79          N80     
 Charge   -0.52341      0.24620     -0.48216      0.44432     -0.66230
   
 Atom       N81          C82          C83          C84          C85     
 Charge   -0.10737      0.02611     -0.33456     -0.10155      0.16827
   
 Atom       H86          H87          H88          H89          H90     
 Charge    0.10427      0.15249      0.14724      0.17777      0.14336
   
 Atom       H91          H92          H93          H94          H95     
 Charge    0.15895      0.22915      0.16297      0.14437      0.14085
   
 Atom       H96          H97          H98          H99          H100    
 Charge    0.09854      0.13817      0.11864      0.11319      0.12681
   
 Atom       H101         H102         H103         H104         H105    
 Charge    0.09756      0.17315      0.08794      0.06870      0.14030
   
 Atom       H106         H107         H108         H109         H110    
 Charge    0.12767      0.02150      0.14416      0.14025      0.13186
   
 Atom       H111         H112         H113         H114         H115    
 Charge    0.13169      0.10171      0.14396      0.14023      0.12522
   
 Atom       H116         H117         H118         H119         H120    
 Charge    0.13469      0.16312      0.12665      0.12380      0.15050
   
 Atom       H121         H122         H123         H124         H125    
 Charge    0.13156      0.13234      0.14146      0.11722      0.14260
   
 Atom       H126         H127         H128         H129         H130    
 Charge    0.15067      0.11792      0.08085      0.10291      0.14819
   
 Atom       H131         H132         H133         H134         H135    
 Charge    0.14303      0.25115      0.10532      0.20843      0.06035
   
 Atom       H136         H137         H138         H139         H140    
 Charge    0.28008      0.16236      0.20991      0.15609      0.10388
   
 Atom       S141         O142         C143         O144         F145    
 Charge    0.62507     -0.43289      0.43988     -0.45362     -0.10833
   
 Atom       F146         F147         H148    
 Charge   -0.14166     -0.15075      0.41180
  
  sum of atomic charges:     0.000000
   
 RMS Error   1.00E-03 hartrees
 
  Peak memory usage:    816 Mb
  
  end of program ch
   
 Time(ch)  user:       19.3  user+sys:       19.3  wallclock:       70.8
  
  start of program post
  
  Writing input files for PBF
  Peak memory usage:    759 Mb
  
  end of program post
   
 Time(post)  user:        0.8  user+sys:        0.8  wallclock:        4.2

  start of program pbf

Pbf Version 4.10

Molecular surface area:      819.16345   [A2]
Reaction field energy:       -21.31298   [kT]
  Peak memory usage: 725 Mb

  end of program pbf

 Time(pbf)  user:       10.1  user+sys:       10.2  wallclock:       34.0
  
  start of program solv
  
   number of surface charges from PBF   13856
   sum of surface charges     -0.00028
   
  nuclear repulsion energy.......   20899.165411778 hartrees
  Peak memory usage:    894 Mb
  
  end of program solv
   
 Time(solv)  user:       39.5  user+sys:       39.5  wallclock:      149.6
  
  start of program scf
  
 Energy computed with NOPS off.
  
       i  u  d  i  g                   
       t  p  i  c  r                                 RMS    maximum
       e  d  i  u  i                       energy  density   DIIS  
       r  t  s  t  d       total energy    change  change    error 
  
etot    1  N  N  1  U   -5575.59347406053           7.1E-06  1.9E-04
etot    2  N  N  1  U   -5575.59347607465  2.0E-06  0.0E+00  0.0E+00
  
  
 Energy components, in hartrees:
   (A)  Total zero-electron terms....   20901.81024595888
   (B)    Nuclear-nuclear............   20899.16541177803
   (C)    Nuclear-solvent............       2.64483418085
   (E)  Total one-electron terms.....  -49330.41797830960
   (F)    Electron-nuclear...........  -54863.80201889740
   (G)    Electron-solvent...........      -2.68922960020
   (H)    Kinetic....................    5536.07327018801
   (I)  Total two-electron terms.....   22853.01425627608
   (J)    Coulomb....................   23504.28259000776
   (K)    Exchange+Correlation.......    -651.26833373169
   (L)  Electronic energy............  -26477.40372203353  (E+I)
   (N)  Total quantum mech. energy...   -5575.59347607465  (A+L)
   (O)  Gas phase energy.............   -5575.55070196283
   (P)  Solution phase energy........   -5575.57127836497  (Q+R+S)
   (Q)    Total solute energy........   -5575.54908065529  (N-C-G)
   (R)    Total solvent energy.......      -0.02219770968  (C/2+G/2)
   (S)    Solute cavity energy.......       0.00000000000
   (U)  Reorganization energy........       0.00162130754  (Q-O)
   (V)  Solvation energy.............      -0.02057640213  (P-O)
  
 SCFE:  Solution phase energy: DFT(m06-2x)      -5575.57127836497 hartrees
        SCF iterations:   2
  
 
 HOMO energy:    -0.29277
 LUMO energy:    -0.06469
 
  Orbital energies (hartrees): 
   -49.66850   -48.48750   -44.15500   -40.94637   -38.19758   -31.95461
   -27.11650   -25.90287   -25.60276   -25.31883   -24.76972   -24.47408
   -23.56455   -22.67729   -22.59159   -21.07711   -18.53619   -15.98342
   -15.94323   -15.47662   -15.24761   -15.11623   -15.01212   -14.90733
   -14.81733   -14.37151   -14.32417   -14.01777   -13.62852   -13.47190
   -13.47154   -13.21410   -12.72957   -12.66865   -12.36918   -12.30663
   -12.30512   -11.98007   -11.87258   -11.65765   -11.55580   -11.40815
   -11.31029   -11.29717   -11.19797   -11.12008   -11.09388   -11.06044
   -10.93316   -10.91022   -10.88315   -10.85853   -10.84410   -10.78052
   -10.69428   -10.68531   -10.68103   -10.64284   -10.60399   -10.59998
   -10.59237   -10.56671   -10.56309   -10.56048   -10.54367   -10.53615
   -10.52727   -10.49870   -10.49867   -10.49663   -10.48440   -10.47517
   -10.45652   -10.45598   -10.41899   -10.40585   -10.40423   -10.38249
   -10.34318   -10.30834   -10.30071   -10.24350   -10.20727   -10.14188
   -10.12225   -10.09430   -10.07873   -10.06455    -9.80807    -9.72159
    -9.71811    -9.65162    -9.62865    -9.61915    -9.51643    -9.37971
    -9.34314    -9.30858    -9.07847    -8.94038    -8.83359    -8.77134
    -8.72197    -8.41942    -8.05062    -7.41253    -7.25763    -7.22397
    -6.79292    -6.36899    -6.25778    -6.22628    -2.07725    -1.45240
    -1.27952    -1.19918    -1.15930    -1.13401    -1.12509    -1.04988
    -1.04673    -0.97855    -0.95431    -0.92558    -0.92164    -0.90356
    -0.89968    -0.88635    -0.88523    -0.88171    -0.86463    -0.86077
    -0.85888    -0.85284    -0.84212    -0.83470    -0.82577    -0.82516
    -0.82275    -0.81467    -0.81427    -0.81419    -0.81044    -0.80654
    -0.80374    -0.79981    -0.78481    -0.78266    -0.77987    -0.77900
    -0.77876    -0.77607    -0.77157    -0.76688    -0.76669    -0.76657
    -0.76566    -0.76560    -0.76512    -0.75808    -0.75209    -0.74817
    -0.74749    -0.74063    -0.73145    -0.73125    -0.73059    -0.73043
    -0.73042    -0.73038    -0.72040    -0.71565    -0.71290    -0.70891
    -0.70679    -0.70669    -0.69930    -0.69520    -0.68047    -0.67604
    -0.67294    -0.67187    -0.66959    -0.66894    -0.66877    -0.65865
    -0.65862    -0.65507    -0.64461    -0.64185    -0.63446    -0.62861
    -0.61838    -0.61770    -0.61760    -0.61747    -0.61610    -0.61317
    -0.61299    -0.61111    -0.60917    -0.60329    -0.60080    -0.60035
    -0.59910    -0.59818    -0.59635    -0.59364    -0.59250    -0.59107
    -0.58874    -0.58586    -0.58495    -0.58335    -0.57778    -0.57563
    -0.57412    -0.57333    -0.57119    -0.57060    -0.56958    -0.56393
    -0.56192    -0.55503    -0.54675    -0.54284    -0.54268    -0.54077
    -0.53608    -0.53519    -0.53385    -0.53287    -0.53194    -0.53107
    -0.52827    -0.52816    -0.52572    -0.52476    -0.52300    -0.52040
    -0.51842    -0.51723    -0.51695    -0.51418    -0.51202    -0.51177
    -0.51123    -0.50997    -0.50964    -0.50920    -0.50866    -0.50779
    -0.50756    -0.50630    -0.50564    -0.50548    -0.50468    -0.50015
    -0.49933    -0.49690    -0.49687    -0.49610    -0.49602    -0.49558
    -0.48866    -0.48863    -0.48788    -0.48774    -0.48567    -0.48538
    -0.48435    -0.48324    -0.48256    -0.48225    -0.47536    -0.47525
    -0.47513    -0.47227    -0.47181    -0.47178    -0.46710    -0.46679
    -0.46660    -0.46630    -0.46464    -0.46296    -0.46290    -0.46191
    -0.45747    -0.45698    -0.45614    -0.45524    -0.45510    -0.45463
    -0.45274    -0.45060    -0.44909    -0.44587    -0.44241    -0.44026
    -0.43850    -0.43822    -0.43545    -0.43526    -0.43507    -0.43146
    -0.43132    -0.42924    -0.42908    -0.42901    -0.42451    -0.42035
    -0.42014    -0.41778    -0.40636    -0.40424    -0.40026    -0.39994
    -0.38596    -0.36718    -0.34543    -0.34447    -0.34369    -0.33936
    -0.33873    -0.32145    -0.31888    -0.31850    -0.31586    -0.31568
    -0.31545    -0.31527    -0.31517    -0.31441    -0.31270    -0.31206
    -0.31032    -0.30564    -0.30503    -0.29277    -0.06469    -0.02209
    -0.02030    -0.00072     0.00007     0.01031     0.01641     0.01846
     0.01936     0.02338
 
  Peak memory usage:   1029 Mb
  
  end of program scf
   
 Time(scf)  user:     2853.1  user+sys:     2853.1  wallclock:    10634.5
  
  start of program sole
  
    SCRF                   solvation energy
  iteration          Hartrees            kcal/mol
     0               0.0000000            0.0000
     1              -0.0192646          -12.0887
     2              -0.0205764          -12.9119
  
  solvation energy not yet converged... 
  
  Peak memory usage:    813 Mb
  
  end of program sole
   
 Time(sole)  user:        0.2  user+sys:        0.2  wallclock:        0.6
  
  start of program ch
  
  gridpoints used for charge fit        16500
    out of a possible maximum of        16500
  
   Electrostatic potential fitting constrained to reproduce
     total charge:                yes
     dipole moment:               no 
     traceless quadrupole moment: no 
     traceless octapole moment:   no 
  
  Atomic charges from electrostatic potential: 
   
 Atom       C1           C2           C3           C4           C5      
 Charge   -0.11483      0.02132     -0.17189      0.16530      0.01057
   
 Atom       C6           C7           C8           C9           C10     
 Charge   -0.21222     -0.37545     -0.13092     -0.12076     -0.13822
   
 Atom       C11          O12          Si13         C14          C15     
 Charge    0.25796     -0.12103     -0.21448      0.22321      0.17088
   
 Atom       C16          C17          C18          C19          C20     
 Charge    0.25945     -0.28080     -0.46718     -0.26495     -0.01544
   
 Atom       Si21         O22          C23          C24          P25     
 Charge    0.03516     -0.17555     -0.11569     -0.13531      0.83342
   
 Atom       O26          N27          C28          C29          C30     
 Charge   -0.55576     -0.61377      0.11603      0.14593      0.15583
   
 Atom       C31          C32          C33          C34          C35     
 Charge    0.05145     -0.03945      0.00581     -0.11531     -0.20527
   
 Atom       C36          C37          C38          C39          C40     
 Charge   -0.17849     -0.12389     -0.14952     -0.12580     -0.16770
   
 Atom       C41          C42          C43          C44          C45     
 Charge   -0.04277     -0.01710     -0.13327     -0.14611     -0.01399
   
 Atom       C46          C47          C48          C49          C50     
 Charge   -0.16123     -0.15068     -0.10647     -0.15433     -0.08069
   
 Atom       C51          C52          C53          C54          C55     
 Charge   -0.19028     -0.18962     -0.11005     -0.14538     -0.17152
   
 Atom       C56          C57          C58          C59          C60     
 Charge   -0.12283     -0.16465     -0.20857     -0.10388     -0.14790
   
 Atom       C61          C62          C63          C64          C65     
 Charge   -0.17152     -0.08208     -0.21354     -0.12871     -0.16333
   
 Atom       C66          C67          C68          C69          C70     
 Charge    0.07036     -0.11697     -0.01670     -0.17467      0.15497
   
 Atom       N71          S72          O73          O74          C75     
 Charge   -0.57836      0.64386     -0.44998     -0.43238      0.63140
   
 Atom       C76          C77          C78          C79          N80     
 Charge   -0.52333      0.24881     -0.48010      0.44544     -0.66708
   
 Atom       N81          C82          C83          C84          C85     
 Charge   -0.10504      0.03157     -0.33337     -0.10015      0.16509
   
 Atom       H86          H87          H88          H89          H90     
 Charge    0.10432      0.15311      0.14768      0.17829      0.14398
   
 Atom       H91          H92          H93          H94          H95     
 Charge    0.15905      0.22962      0.16329      0.14483      0.14134
   
 Atom       H96          H97          H98          H99          H100    
 Charge    0.09814      0.13824      0.11997      0.11347      0.12667
   
 Atom       H101         H102         H103         H104         H105    
 Charge    0.09724      0.17291      0.08815      0.06824      0.14050
   
 Atom       H106         H107         H108         H109         H110    
 Charge    0.12781      0.02030      0.14475      0.14083      0.13244
   
 Atom       H111         H112         H113         H114         H115    
 Charge    0.13152      0.10214      0.14456      0.14127      0.12539
   
 Atom       H116         H117         H118         H119         H120    
 Charge    0.13577      0.16312      0.12700      0.12482      0.15107
   
 Atom       H121         H122         H123         H124         H125    
 Charge    0.13218      0.13298      0.14199      0.11752      0.14367
   
 Atom       H126         H127         H128         H129         H130    
 Charge    0.15126      0.11884      0.08022      0.10251      0.14865
   
 Atom       H131         H132         H133         H134         H135    
 Charge    0.14366      0.25111      0.10603      0.20946      0.06102
   
 Atom       H136         H137         H138         H139         H140    
 Charge    0.27765      0.16184      0.21075      0.15607      0.10495
   
 Atom       S141         O142         C143         O144         F145    
 Charge    0.62261     -0.43185      0.44100     -0.45301     -0.10833
   
 Atom       F146         F147         H148    
 Charge   -0.14210     -0.15078      0.41276
  
  sum of atomic charges:     0.000000
   
 RMS Error   1.00E-03 hartrees
 
  Peak memory usage:    816 Mb
  
  end of program ch
   
 Time(ch)  user:       19.0  user+sys:       19.0  wallclock:       71.3
  
  start of program post
  
  Writing input files for PBF
  Peak memory usage:    759 Mb
  
  end of program post
   
 Time(post)  user:        0.9  user+sys:        0.9  wallclock:        3.9

  start of program pbf

Pbf Version 4.10

Molecular surface area:      819.16345   [A2]
Reaction field energy:       -21.73763   [kT]
  Peak memory usage: 725 Mb

  end of program pbf

 Time(pbf)  user:       10.0  user+sys:       10.1  wallclock:       35.5
  
  start of program solv
  
   number of surface charges from PBF   13856
   sum of surface charges     -0.00028
   
  nuclear repulsion energy.......   20899.165411778 hartrees
  Peak memory usage:    894 Mb
  
  end of program solv
   
 Time(solv)  user:       39.7  user+sys:       39.7  wallclock:      148.9
  
  start of program scf
  
 Energy computed with NOPS off.
  
       i  u  d  i  g                   
       t  p  i  c  r                                 RMS    maximum
       e  d  i  u  i                       energy  density   DIIS  
       r  t  s  t  d       total energy    change  change    error 
  
etot    1  N  N  1  U   -5575.59389327535           6.4E-06  1.7E-04
etot    2  N  N  1  U   -5575.59387016635 -2.3E-05  0.0E+00  0.0E+00
  
  
 Energy components, in hartrees:
   (A)  Total zero-electron terms....   20901.86184716575
   (B)    Nuclear-nuclear............   20899.16541177803
   (C)    Nuclear-solvent............       2.69643538772
   (E)  Total one-electron terms.....  -49330.12028550074
   (F)    Electron-nuclear...........  -54863.43508548443
   (G)    Electron-solvent...........      -2.74106915289
   (H)    Kinetic....................    5536.05586913658
   (I)  Total two-electron terms.....   22852.66456816863
   (J)    Coulomb....................   23503.93132011568
   (K)    Exchange+Correlation.......    -651.26675194705
   (L)  Electronic energy............  -26477.45571733211  (E+I)
   (N)  Total quantum mech. energy...   -5575.59387016635  (A+L)
   (O)  Gas phase energy.............   -5575.55070196283
   (P)  Solution phase energy........   -5575.57155328377  (Q+R+S)
   (Q)    Total solute energy........   -5575.54923640119  (N-C-G)
   (R)    Total solvent energy.......      -0.02231688258  (C/2+G/2)
   (S)    Solute cavity energy.......       0.00000000000
   (U)  Reorganization energy........       0.00146556164  (Q-O)
   (V)  Solvation energy.............      -0.02085132094  (P-O)
  
 SCFE:  Solution phase energy: DFT(m06-2x)      -5575.57155328377 hartrees
        SCF iterations:   2
  
 
 HOMO energy:    -0.25328
 LUMO energy:    -0.06581
 
  Orbital energies (hartrees): 
   -90.17687   -90.15729   -78.21199   -67.00873   -67.00751   -25.29044
   -25.28819   -25.28808   -19.69215   -19.68989   -19.65573   -19.65224
   -19.63728   -19.62771   -19.60549   -14.82422   -14.82027   -14.79529
   -14.74089   -10.80621   -10.66469   -10.63621   -10.62821   -10.62277
   -10.62023   -10.60738   -10.60444   -10.58643   -10.58579   -10.58322
   -10.58152   -10.57956   -10.57223   -10.57076   -10.57032   -10.56964
   -10.56692   -10.56635   -10.56539   -10.56308   -10.56224   -10.56175
   -10.56159   -10.56007   -10.55935   -10.55919   -10.55371   -10.55345
   -10.55188   -10.55187   -10.55176   -10.55168   -10.55155   -10.55091
   -10.55086   -10.55076   -10.55049   -10.55037   -10.55014   -10.54938
   -10.54922   -10.54914   -10.54859   -10.54855   -10.54744   -10.54698
   -10.54627   -10.54617   -10.54589   -10.54516   -10.54503   -10.54437
   -10.54429   -10.54410   -10.54368   -10.54359   -10.54350   -10.54349
   -10.54318   -10.54292   -10.54270   -10.54229   -10.54208   -10.54041
   -10.53897   -10.53891   -10.53515   -10.53469   -10.53083   -10.53026
   -10.52911   -10.52819    -8.48761    -8.46557    -6.99140    -6.40980
    -6.40870    -6.40808    -6.38762    -6.38704    -6.38692    -5.53984
    -5.53908    -5.11003    -5.10866    -5.10732    -3.84962    -3.84927
    -3.84922    -3.84889    -3.84852    -3.84831    -1.45558    -1.36476
    -1.36342    -1.24901    -1.23091    -1.22053    -1.18628    -1.13363
    -1.11411    -1.10598    -1.08925    -1.08643    -1.06935    -0.99178
    -0.98219    -0.97246    -0.96731    -0.94594    -0.94485    -0.93947
    -0.93911    -0.93707    -0.93615    -0.92404    -0.92210    -0.91091
    -0.90312    -0.89846    -0.89048    -0.87846    -0.85329    -0.85295
    -0.84460    -0.84332    -0.84316    -0.83709    -0.83657    -0.83637
    -0.83190    -0.83064    -0.83033    -0.82964    -0.82832    -0.82658
    -0.82606    -0.82505    -0.82471    -0.82236    -0.82161    -0.80625
    -0.80127    -0.76441    -0.75742    -0.73847    -0.73088    -0.71678
    -0.70981    -0.70517    -0.69883    -0.69450    -0.69135    -0.68914
    -0.68734    -0.68376    -0.68044    -0.67952    -0.67852    -0.67736
    -0.67731    -0.67279    -0.67148    -0.67098    -0.66972    -0.66800
    -0.66609    -0.66292    -0.66224    -0.65859    -0.65672    -0.65200
    -0.65014    -0.64698    -0.63850    -0.62595    -0.61293    -0.60798
    -0.60622    -0.60242    -0.60023    -0.59033    -0.58299    -0.58089
    -0.57984    -0.57860    -0.57617    -0.57569    -0.57376    -0.57157
    -0.56543    -0.56097    -0.56005    -0.55706    -0.54885    -0.54790
    -0.54622    -0.54496    -0.54042    -0.53785    -0.53491    -0.53247
    -0.53110    -0.52851    -0.52643    -0.52497    -0.52280    -0.51910
    -0.51779    -0.51654    -0.51562    -0.51511    -0.51359    -0.51208
    -0.51110    -0.50893    -0.50576    -0.50233    -0.50144    -0.50012
    -0.49859    -0.49778    -0.49678    -0.49614    -0.49581    -0.49488
    -0.49453    -0.49384    -0.49240    -0.49123    -0.48928    -0.48772
    -0.48447    -0.48391    -0.48305    -0.48236    -0.48043    -0.47757
    -0.47590    -0.47537    -0.47410    -0.47035    -0.46973    -0.46440
    -0.45978    -0.45503    -0.45223    -0.45075    -0.44950    -0.44705
    -0.44506    -0.44372    -0.44150    -0.43938    -0.43262    -0.42995
    -0.42730    -0.42640    -0.42560    -0.42305    -0.42156    -0.41998
    -0.41865    -0.41783    -0.41641    -0.41159    -0.40813    -0.40329
    -0.40278    -0.40228    -0.39998    -0.39714    -0.39503    -0.39314
    -0.39279    -0.39201    -0.38908    -0.38797    -0.38698    -0.38599
    -0.38512    -0.38136    -0.38060    -0.37869    -0.37404    -0.37006
    -0.36479    -0.36085    -0.35659    -0.35228    -0.34912    -0.34583
    -0.34337    -0.34199    -0.34000    -0.33858    -0.33640    -0.33557
    -0.33145    -0.32896    -0.32481    -0.31937    -0.31379    -0.30660
    -0.30342    -0.30290    -0.30183    -0.29873    -0.29517    -0.29457
    -0.29284    -0.29171    -0.29011    -0.28959    -0.28912    -0.28711
    -0.28616    -0.28472    -0.27356    -0.25328    -0.06581    -0.02334
    -0.02064    -0.00117    -0.00043     0.00990     0.01582     0.01804
     0.01903     0.02294
 
  Peak memory usage:   1029 Mb
  
  end of program scf
   
 Time(scf)  user:     2820.8  user+sys:     2820.8  wallclock:    10538.0
  
  start of program sole
  
    SCRF                   solvation energy
  iteration          Hartrees            kcal/mol
     0               0.0000000            0.0000
     1              -0.0192646          -12.0887
     2              -0.0205764          -12.9119
     3              -0.0208513          -13.0844
  
  solvation energy not yet converged... 
  
  Peak memory usage:    813 Mb
  
  end of program sole
   
 Time(sole)  user:        0.2  user+sys:        0.2  wallclock:        0.6
  
  start of program ch
  
  gridpoints used for charge fit        16500
    out of a possible maximum of        16500
  
   Electrostatic potential fitting constrained to reproduce
     total charge:                yes
     dipole moment:               no 
     traceless quadrupole moment: no 
     traceless octapole moment:   no 
  
  Atomic charges from electrostatic potential: 
   
 Atom       C1           C2           C3           C4           C5      
 Charge   -0.11421      0.02138     -0.17268      0.16525      0.01002
   
 Atom       C6           C7           C8           C9           C10     
 Charge   -0.21185     -0.37563     -0.13174     -0.11995     -0.13831
   
 Atom       C11          O12          Si13         C14          C15     
 Charge    0.25838     -0.12123     -0.21382      0.22279      0.17170
   
 Atom       C16          C17          C18          C19          C20     
 Charge    0.25892     -0.28061     -0.46677     -0.26443     -0.01429
   
 Atom       Si21         O22          C23          C24          P25     
 Charge    0.03503     -0.17635     -0.11658     -0.13652      0.83558
   
 Atom       O26          N27          C28          C29          C30     
 Charge   -0.55708     -0.61400      0.11643      0.14541      0.15943
   
 Atom       C31          C32          C33          C34          C35     
 Charge    0.05261     -0.03811      0.00690     -0.11512     -0.20429
   
 Atom       C36          C37          C38          C39          C40     
 Charge   -0.17714     -0.12381     -0.15109     -0.12674     -0.16715
   
 Atom       C41          C42          C43          C44          C45     
 Charge   -0.04305     -0.01730     -0.13265     -0.14565     -0.01422
   
 Atom       C46          C47          C48          C49          C50     
 Charge   -0.16131     -0.15136     -0.10743     -0.15296     -0.08169
   
 Atom       C51          C52          C53          C54          C55     
 Charge   -0.19188     -0.18831     -0.11322     -0.14453     -0.17002
   
 Atom       C56          C57          C58          C59          C60     
 Charge   -0.12407     -0.16592     -0.20863     -0.10470     -0.14873
   
 Atom       C61          C62          C63          C64          C65     
 Charge   -0.17119     -0.08305     -0.21421     -0.13192     -0.16377
   
 Atom       C66          C67          C68          C69          C70     
 Charge    0.07296     -0.11335     -0.01720     -0.17689      0.16004
   
 Atom       N71          S72          O73          O74          C75     
 Charge   -0.57523      0.64813     -0.45472     -0.43394      0.63541
   
 Atom       C76          C77          C78          C79          N80     
 Charge   -0.52496      0.24645     -0.48369      0.44539     -0.66445
   
 Atom       N81          C82          C83          C84          C85     
 Charge   -0.10520      0.02485     -0.33607     -0.10171      0.16690
   
 Atom       H86          H87          H88          H89          H90     
 Charge    0.10408      0.15328      0.14762      0.17795      0.14415
   
 Atom       H91          H92          H93          H94          H95     
 Charge    0.15892      0.22953      0.16329      0.14509      0.14162
   
 Atom       H96          H97          H98          H99          H100    
 Charge    0.09799      0.13796      0.11991      0.11325      0.12684
   
 Atom       H101         H102         H103         H104         H105    
 Charge    0.09745      0.17304      0.08797      0.06817      0.14036
   
 Atom       H106         H107         H108         H109         H110    
 Charge    0.12766      0.02052      0.14476      0.14093      0.13255
   
 Atom       H111         H112         H113         H114         H115    
 Charge    0.13149      0.10209      0.14472      0.14108      0.12578
   
 Atom       H116         H117         H118         H119         H120    
 Charge    0.13539      0.16278      0.12703      0.12488      0.15104
   
 Atom       H121         H122         H123         H124         H125    
 Charge    0.13231      0.13306      0.14193      0.11765      0.14361
   
 Atom       H126         H127         H128         H129         H130    
 Charge    0.15178      0.11854      0.07968      0.10241      0.14899
   
 Atom       H131         H132         H133         H134         H135    
 Charge    0.14230      0.25116      0.10651      0.21008      0.06085
   
 Atom       H136         H137         H138         H139         H140    
 Charge    0.27949      0.16313      0.21179      0.15659      0.10537
   
 Atom       S141         O142         C143         O144         F145    
 Charge    0.62245     -0.43046      0.43988     -0.45356     -0.10804
   
 Atom       F146         F147         H148    
 Charge   -0.14188     -0.15096      0.41293
  
  sum of atomic charges:     0.000000
   
 RMS Error   1.00E-03 hartrees
 
  Peak memory usage:    816 Mb
  
  end of program ch
   
 Time(ch)  user:       18.9  user+sys:       18.9  wallclock:       66.3
  
  start of program post
  
  Writing input files for PBF
  Peak memory usage:    759 Mb
  
  end of program post
   
 Time(post)  user:        0.9  user+sys:        0.9  wallclock:        3.9

  start of program pbf

Pbf Version 4.10

Molecular surface area:      819.16345   [A2]
Reaction field energy:       -21.56723   [kT]
  Peak memory usage: 725 Mb

  end of program pbf

 Time(pbf)  user:       10.1  user+sys:       10.3  wallclock:       33.0
  
  start of program solv
  
   number of surface charges from PBF   13856
   sum of surface charges     -0.00028
   
  nuclear repulsion energy.......   20899.165411778 hartrees
  Peak memory usage:    894 Mb
  
  end of program solv
   
 Time(solv)  user:       39.7  user+sys:       39.7  wallclock:      144.8
  
  start of program scf
  
 Energy computed with NOPS off.
  
       i  u  d  i  g                   
       t  p  i  c  r                                 RMS    maximum
       e  d  i  u  i                       energy  density   DIIS  
       r  t  s  t  d       total energy    change  change    error 
  
etot    1  N  N  1  U   -5575.59371867614           1.0E-05  2.8E-04
etot    2  N  Y  1  U   -5575.59364563077 -7.3E-05  6.6E-06  4.8E-04
etot    3  N  Y  1  U   -5575.59375090857  1.1E-04  2.2E-07  1.4E-05
etot    4  N  N  1  U   -5575.59375107259  1.6E-07  0.0E+00  0.0E+00
  
  
 Energy components, in hartrees:
   (A)  Total zero-electron terms....   20901.82986369406
   (B)    Nuclear-nuclear............   20899.16541177803
   (C)    Nuclear-solvent............       2.66445191603
   (E)  Total one-electron terms.....  -49330.28946278049
   (F)    Electron-nuclear...........  -54863.64373876583
   (G)    Electron-solvent...........      -2.70903134106
   (H)    Kinetic....................    5536.06330732639
   (I)  Total two-electron terms.....   22852.86584801384
   (J)    Coulomb....................   23504.13322193818
   (K)    Exchange+Correlation.......    -651.26737392434
   (L)  Electronic energy............  -26477.42361476665  (E+I)
   (N)  Total quantum mech. energy...   -5575.59375107259  (A+L)
   (O)  Gas phase energy.............   -5575.55070196283
   (P)  Solution phase energy........   -5575.57146136008  (Q+R+S)
   (Q)    Total solute energy........   -5575.54917164756  (N-C-G)
   (R)    Total solvent energy.......      -0.02228971251  (C/2+G/2)
   (S)    Solute cavity energy.......       0.00000000000
   (U)  Reorganization energy........       0.00153031527  (Q-O)
   (V)  Solvation energy.............      -0.02075939724  (P-O)
  
 SCFE:  Solution phase energy: DFT(m06-2x)      -5575.57146136008 hartrees
        SCF iterations:   4
  
 
 HOMO energy:    -0.25310
 LUMO energy:    -0.06512
 
  Orbital energies (hartrees): 
   -90.17481   -90.15663   -78.21134   -67.00812   -67.00678   -25.29057
   -25.28812   -25.28794   -19.69177   -19.68901   -19.65481   -19.65468
   -19.63541   -19.62774   -19.60511   -14.82303   -14.81578   -14.79213
   -14.74023   -10.80609   -10.66145   -10.63372   -10.62749   -10.62220
   -10.62207   -10.60702   -10.60354   -10.58756   -10.58574   -10.58217
   -10.58083   -10.58070   -10.57217   -10.57058   -10.57056   -10.56976
   -10.56723   -10.56667   -10.56426   -10.56414   -10.56299   -10.56217
   -10.56158   -10.55974   -10.55900   -10.55881   -10.55370   -10.55343
   -10.55220   -10.55192   -10.55189   -10.55175   -10.55141   -10.55108
   -10.55099   -10.55064   -10.55039   -10.55031   -10.55003   -10.54954
   -10.54935   -10.54864   -10.54863   -10.54849   -10.54751   -10.54677
   -10.54658   -10.54643   -10.54625   -10.54554   -10.54513   -10.54490
   -10.54411   -10.54402   -10.54358   -10.54340   -10.54323   -10.54301
   -10.54278   -10.54239   -10.54232   -10.54201   -10.54087   -10.54051
   -10.53842   -10.53800   -10.53455   -10.53405   -10.52971   -10.52962
   -10.52861   -10.52752    -8.48567    -8.46492    -6.99076    -6.40785
    -6.40677    -6.40613    -6.38697    -6.38639    -6.38627    -5.53925
    -5.53837    -5.10938    -5.10801    -5.10668    -3.84902    -3.84868
    -3.84863    -3.84818    -3.84781    -3.84760    -1.45547    -1.36471
    -1.36326    -1.24814    -1.23030    -1.21983    -1.18566    -1.13324
    -1.11396    -1.10517    -1.08873    -1.08485    -1.06678    -0.99116
    -0.98200    -0.97187    -0.96721    -0.94575    -0.94474    -0.93940
    -0.93886    -0.93703    -0.93571    -0.92402    -0.92200    -0.91077
    -0.90267    -0.89833    -0.89025    -0.87771    -0.85322    -0.85259
    -0.84442    -0.84335    -0.84298    -0.83693    -0.83644    -0.83619
    -0.83189    -0.83038    -0.83023    -0.82932    -0.82823    -0.82635
    -0.82591    -0.82482    -0.82452    -0.82222    -0.82114    -0.80529
    -0.80108    -0.76397    -0.75641    -0.73796    -0.73052    -0.71579
    -0.70951    -0.70498    -0.69855    -0.69401    -0.69116    -0.68906
    -0.68642    -0.68361    -0.68034    -0.67938    -0.67836    -0.67719
    -0.67712    -0.67267    -0.67141    -0.67113    -0.66951    -0.66765
    -0.66607    -0.66277    -0.66205    -0.65818    -0.65661    -0.65174
    -0.65002    -0.64625    -0.63812    -0.62563    -0.61227    -0.60772
    -0.60547    -0.60213    -0.60003    -0.58965    -0.58284    -0.58074
    -0.57938    -0.57828    -0.57610    -0.57538    -0.57366    -0.57124
    -0.56492    -0.56075    -0.55986    -0.55693    -0.54835    -0.54743
    -0.54599    -0.54453    -0.53992    -0.53763    -0.53454    -0.53220
    -0.53093    -0.52808    -0.52626    -0.52479    -0.52261    -0.51892
    -0.51763    -0.51633    -0.51548    -0.51488    -0.51324    -0.51190
    -0.51070    -0.50858    -0.50549    -0.50213    -0.50126    -0.49997
    -0.49838    -0.49756    -0.49654    -0.49568    -0.49558    -0.49446
    -0.49432    -0.49356    -0.49208    -0.49075    -0.48916    -0.48750
    -0.48430    -0.48381    -0.48287    -0.48221    -0.48052    -0.47737
    -0.47583    -0.47500    -0.47433    -0.47058    -0.46949    -0.46418
    -0.45972    -0.45482    -0.45211    -0.45057    -0.44931    -0.44677
    -0.44467    -0.44353    -0.44094    -0.43906    -0.43240    -0.42932
    -0.42708    -0.42599    -0.42537    -0.42281    -0.42128    -0.41968
    -0.41831    -0.41763    -0.41618    -0.41127    -0.40770    -0.40304
    -0.40227    -0.40193    -0.39971    -0.39624    -0.39488    -0.39304
    -0.39262    -0.39163    -0.38890    -0.38776    -0.38680    -0.38559
    -0.38502    -0.38107    -0.38022    -0.37834    -0.37369    -0.36959
    -0.36426    -0.36050    -0.35624    -0.35198    -0.34775    -0.34554
    -0.34313    -0.34155    -0.33970    -0.33814    -0.33599    -0.33556
    -0.33107    -0.32847    -0.32442    -0.31842    -0.31348    -0.30637
    -0.30324    -0.30277    -0.30168    -0.29858    -0.29508    -0.29420
    -0.29245    -0.29143    -0.28999    -0.28933    -0.28886    -0.28673
    -0.28584    -0.28443    -0.27342    -0.25310    -0.06512    -0.02259
    -0.02046    -0.00089    -0.00014     0.01014     0.01618     0.01828
     0.01920     0.02322
 
  Peak memory usage:   1029 Mb
  
  end of program scf
   
 Time(scf)  user:     8414.0  user+sys:     8414.0  wallclock:    30468.7
  
  start of program sole
  
    SCRF                   solvation energy
  iteration          Hartrees            kcal/mol
     0               0.0000000            0.0000
     1              -0.0192646          -12.0887
     2              -0.0205764          -12.9119
     3              -0.0208513          -13.0844
     4              -0.0207594          -13.0267
  
  stopping: solvation energy converged
  
  iterations:   4    sfinal:    -13.0267 kcal/mol
  
  Peak memory usage:    813 Mb
  
  end of program sole
   
 Time(sole)  user:        0.2  user+sys:        0.2  wallclock:        0.4
  
  start of program post
  
  Writing input files for PBF
  Peak memory usage:    759 Mb
  
  end of program post
   
 Time(post)  user:        0.8  user+sys:        0.8  wallclock:        3.4

 Total cpu seconds     user:   66172.103   user+sys:   66172.103
  
 Total elapsed time:    238390 seconds

Job Toru-SiPh3-NTf-Type-II-E-Sulfonyl-1-chkp-scan-207-unrestrained.1-SPE completed on tethys at Fri Mar 17 07:20:08 2017
