Command:    jaguar run jexec.py -jobname Toru-SiPh3-NTf-Type-II-E-Sulfonyl-1-chkp-scan-207-unrestrained.1-SPE -nsubjobs 1 Toru-SiPh3-NTf-Type-II-E-Sulfonyl-1-chkp-scan-207-unrestrained.1-SPE.in
[running at reduced cpu priority]
Release:    2017-1
Exec:       /usr/local/shared/schrodinger/current/jaguar-v9.5/bin/Linux-x86_64
Host:       tethys
JobId:      tethys-0-58c7eaef
JobDir:     /scratch/ab2144/Toru-SiPh3-NTf-Type-II-E-Sulfonyl-1-chkp-scan-207-unrestrained.1-SPE
Date:       Tue Mar 14 13:06:58 2017

Contents of /scratch/ab2144/Toru-SiPh3-NTf-Type-II-E-Sulfonyl-1-chkp-scan-207-unrestrained.1-SPE:
/scratch/ab2144/Toru-SiPh3-NTf-Type-II-E-Sulfonyl-1-chkp-scan-207-unrestrained.1-SPE/Toru-SiPh3-NTf-Type-II-E-Sulfonyl-1-chkp-scan-207-unrestrained.1-SPE.log
/scratch/ab2144/Toru-SiPh3-NTf-Type-II-E-Sulfonyl-1-chkp-scan-207-unrestrained.1-SPE/Toru-SiPh3-NTf-Type-II-E-Sulfonyl-1-chkp-scan-207-unrestrained.1-SPE.mae
/scratch/ab2144/Toru-SiPh3-NTf-Type-II-E-Sulfonyl-1-chkp-scan-207-unrestrained.1-SPE/tethys-0-58c7eaef
/scratch/ab2144/Toru-SiPh3-NTf-Type-II-E-Sulfonyl-1-chkp-scan-207-unrestrained.1-SPE/tethys-0-58c7eaef.recover
/scratch/ab2144/Toru-SiPh3-NTf-Type-II-E-Sulfonyl-1-chkp-scan-207-unrestrained.1-SPE/tethys-0-58c7eaef.nodes
/scratch/ab2144/Toru-SiPh3-NTf-Type-II-E-Sulfonyl-1-chkp-scan-207-unrestrained.1-SPE/Toru-SiPh3-NTf-Type-II-E-Sulfonyl-1-chkp-scan-207-unrestrained.1-SPE.in
/scratch/ab2144/Toru-SiPh3-NTf-Type-II-E-Sulfonyl-1-chkp-scan-207-unrestrained.1-SPE/Toru-SiPh3-NTf-Type-II-E-Sulfonyl-1-chkp-scan-207-unrestrained.1-SPE.recover

Executing subprocess:
/usr/local/shared/schrodinger/current/jaguar-v9.5/bin/Linux-x86_64/jexec Toru-SiPh3-NTf-Type-II-E-Sulfonyl-1-chkp-scan-207-unrestrained.1-SPE.in -cwd -out /scratch/ab2144/Toru-SiPh3-NTf-Type-II-E-Sulfonyl-1-chkp-scan-207-unrestrained.1-SPE

[running at reduced cpu priority]
[running at reduced cpu priority]
Job Toru-SiPh3-NTf-Type-II-E-Sulfonyl-1-chkp-scan-207-unrestrained.1-SPE started on tethys at Tue Mar 14 13:06:58 2017
jobid: tethys-0-58c7eaef 
Jaguar version 9.5, release  11
Molecular Point Group: C1      
Point Group used: C1
pre (input checking) done.
onee (1-electron integrals) done.
hfig (HF initial guess) done.
probe (project orbitals) done.
grid (grid generation) done.
rwr (Q operators) done.
scf type: DFT=M06-2X
  
       i  u  d  i  g
       t  p  i  c  r                                 RMS    maximum
       e  d  i  u  i                       energy  density   DIIS  
       r  t  s  t  d       total energy    change  change    error 
  
etot    1  N  N  1  U   -5562.71679005724           4.0E-03  9.9E-02
etot    2  N  Y  1  U   -5529.81559618886 -3.3E+01  1.9E-02  1.4E-01
etot    3  N  Y  1  U   -5284.10209189808 -2.5E+02  1.9E-02  4.4E-01
etot    4  N  Y  1  U   -5570.41368111565  2.9E+02  2.5E-03  6.8E-02
etot    5  N  Y  1  U   -5570.59180164700  1.8E-01  2.0E-03  6.5E-02
etot    6  N  Y  1  U   -5569.18765117204 -1.4E+00  1.3E-03  7.0E-02
etot    7  N  Y  1  U   -5575.26855895972  6.1E+00  4.3E-04  2.1E-02
etot    8  N  Y  1  U   -5575.52739702490  2.6E-01  1.6E-04  6.6E-03
etot    9  N  Y  1  U   -5575.54024548371  1.3E-02  7.2E-05  5.2E-03
etot   10  N  Y  1  U   -5575.54971286782  9.5E-03  2.2E-05  8.7E-04
etot   11  N  Y  1  U   -5575.55041124668  7.0E-04  1.2E-05  4.9E-04
etot   12  N  Y  1  U   -5575.55062744980  2.2E-04  6.6E-06  2.6E-04
etot   13  N  Y  1  U   -5575.55068532145  5.8E-05  3.3E-06  1.3E-04
etot   14  N  N  1  U   -5575.55070196283  1.7E-05  0.0E+00  0.0E+00
scf (DFT) done.
--------gas phase calculation complete----------------------
ch (properties) done.
post (output conversion) done.
pbf (Poisson-Boltzmann solver) done.
solv (solvation checking) done.
  
       i  u  d  i  g
       t  p  i  c  r                                 RMS    maximum
       e  d  i  u  i                       energy  density   DIIS  
       r  t  s  t  d       total energy    change  change    error 
  
etot    1  N  N  1  U   -5575.58922002991           5.7E-05  1.3E-03
etot    2  N  Y  1  U   -5575.59005821293  8.4E-04  1.9E-05  1.2E-03
etot    3  N  Y  1  U   -5575.59038932486  3.3E-04  6.1E-06  5.2E-04
etot    4  N  Y  1  U   -5575.59045210693  6.3E-05  2.6E-06  1.4E-04
etot    5  N  N  1  U   -5575.59045967053  7.6E-06  0.0E+00  0.0E+00
scf (DFT) done.
sole (solvation energy) done.
----------solvation iteration  1 complete------------------
ch (properties) done.
post (output conversion) done.
pbf (Poisson-Boltzmann solver) done.
solv (solvation checking) done.
  
       i  u  d  i  g
       t  p  i  c  r                                 RMS    maximum
       e  d  i  u  i                       energy  density   DIIS  
       r  t  s  t  d       total energy    change  change    error 
  
etot    1  N  N  1  U   -5575.59347406053           7.1E-06  1.9E-04
etot    2  N  N  1  U   -5575.59347607465  2.0E-06  0.0E+00  0.0E+00
scf (DFT) done.
sole (solvation energy) done.
----------solvation iteration  2 complete------------------
ch (properties) done.
post (output conversion) done.
pbf (Poisson-Boltzmann solver) done.
solv (solvation checking) done.
  
       i  u  d  i  g
       t  p  i  c  r                                 RMS    maximum
       e  d  i  u  i                       energy  density   DIIS  
       r  t  s  t  d       total energy    change  change    error 
  
etot    1  N  N  1  U   -5575.59389327535           6.4E-06  1.7E-04
etot    2  N  N  1  U   -5575.59387016635 -2.3E-05  0.0E+00  0.0E+00
scf (DFT) done.
sole (solvation energy) done.
----------solvation iteration  3 complete------------------
ch (properties) done.
post (output conversion) done.
pbf (Poisson-Boltzmann solver) done.
solv (solvation checking) done.
  
       i  u  d  i  g
       t  p  i  c  r                                 RMS    maximum
       e  d  i  u  i                       energy  density   DIIS  
       r  t  s  t  d       total energy    change  change    error 
  
etot    1  N  N  1  U   -5575.59371867614           1.0E-05  2.8E-04
etot    2  N  Y  1  U   -5575.59364563077 -7.3E-05  6.6E-06  4.8E-04
etot    3  N  Y  1  U   -5575.59375090857  1.1E-04  2.2E-07  1.4E-05
etot    4  N  N  1  U   -5575.59375107259  1.6E-07  0.0E+00  0.0E+00
scf (DFT) done.
sole (solvation energy) done.
----final solvation iteration  4 complete------------------
post (output conversion) done.
Job Toru-SiPh3-NTf-Type-II-E-Sulfonyl-1-chkp-scan-207-unrestrained.1-SPE completed on tethys at Fri Mar 17 07:20:08 2017
Timer (jaguar_backend.py) : 238390.43 secs (2 days, 18 hrs, 13 mins, 10 secs)
Finished:   Fri Mar 17 07:20:09 2017
