 Entering Gaussian System, Link 0=/usr/local/shared/gaussian/em64t/09-D01/g09/g09
 Initial command:
 /usr/local/shared/gaussian/em64t/09-D01/g09/l1.exe "/scratch/ab2144/Toru-SiPh3-Type-I-Z-1-chkp-unrestrained/Gau-1387.inp" -scrdir="/scratch/ab2144/Toru-SiPh3-Type-I-Z-1-chkp-unrestrained/"
 Entering Link 1 = /usr/local/shared/gaussian/em64t/09-D01/g09/l1.exe PID=      1390.
  
 Copyright (c) 1988,1990,1992,1993,1995,1998,2003,2009,2013,
            Gaussian, Inc.  All Rights Reserved.
  
 This is part of the Gaussian(R) 09 program.  It is based on
 the Gaussian(R) 03 system (copyright 2003, Gaussian, Inc.),
 the Gaussian(R) 98 system (copyright 1998, Gaussian, Inc.),
 the Gaussian(R) 94 system (copyright 1995, Gaussian, Inc.),
 the Gaussian 92(TM) system (copyright 1992, Gaussian, Inc.),
 the Gaussian 90(TM) system (copyright 1990, Gaussian, Inc.),
 the Gaussian 88(TM) system (copyright 1988, Gaussian, Inc.),
 the Gaussian 86(TM) system (copyright 1986, Carnegie Mellon
 University), and the Gaussian 82(TM) system (copyright 1983,
 Carnegie Mellon University). Gaussian is a federally registered
 trademark of Gaussian, Inc.
  
 This software contains proprietary and confidential information,
 including trade secrets, belonging to Gaussian, Inc.
  
 This software is provided under written license and may be
 used, copied, transmitted, or stored only in accord with that
 written license.
  
 The following legend is applicable only to US Government
 contracts under FAR:
  
                    RESTRICTED RIGHTS LEGEND
  
 Use, reproduction and disclosure by the US Government is
 subject to restrictions as set forth in subparagraphs (a)
 and (c) of the Commercial Computer Software - Restricted
 Rights clause in FAR 52.227-19.
  
 Gaussian, Inc.
 340 Quinnipiac St., Bldg. 40, Wallingford CT 06492
  
  
 ---------------------------------------------------------------
 Warning -- This program may not be used in any manner that
 competes with the business of Gaussian, Inc. or will provide
 assistance to any competitor of Gaussian, Inc.  The licensee
 of this program is prohibited from giving any competitor of
 Gaussian, Inc. access to this program.  By using this program,
 the user acknowledges that Gaussian, Inc. is engaged in the
 business of creating and licensing software in the field of
 computational chemistry and represents and warrants to the
 licensee that it is not a competitor of Gaussian, Inc. and that
 it will not use this program in any manner prohibited above.
 ---------------------------------------------------------------
  

 Cite this work as:
 Gaussian 09, Revision D.01,
 M. J. Frisch, G. W. Trucks, H. B. Schlegel, G. E. Scuseria, 
 M. A. Robb, J. R. Cheeseman, G. Scalmani, V. Barone, B. Mennucci, 
 G. A. Petersson, H. Nakatsuji, M. Caricato, X. Li, H. P. Hratchian, 
 A. F. Izmaylov, J. Bloino, G. Zheng, J. L. Sonnenberg, M. Hada, 
 M. Ehara, K. Toyota, R. Fukuda, J. Hasegawa, M. Ishida, T. Nakajima, 
 Y. Honda, O. Kitao, H. Nakai, T. Vreven, J. A. Montgomery, Jr., 
 J. E. Peralta, F. Ogliaro, M. Bearpark, J. J. Heyd, E. Brothers, 
 K. N. Kudin, V. N. Staroverov, T. Keith, R. Kobayashi, J. Normand, 
 K. Raghavachari, A. Rendell, J. C. Burant, S. S. Iyengar, J. Tomasi, 
 M. Cossi, N. Rega, J. M. Millam, M. Klene, J. E. Knox, J. B. Cross, 
 V. Bakken, C. Adamo, J. Jaramillo, R. Gomperts, R. E. Stratmann, 
 O. Yazyev, A. J. Austin, R. Cammi, C. Pomelli, J. W. Ochterski, 
 R. L. Martin, K. Morokuma, V. G. Zakrzewski, G. A. Voth, 
 P. Salvador, J. J. Dannenberg, S. Dapprich, A. D. Daniels, 
 O. Farkas, J. B. Foresman, J. V. Ortiz, J. Cioslowski, 
 and D. J. Fox, Gaussian, Inc., Wallingford CT, 2013.
 
 ******************************************
 Gaussian 09:  EM64L-G09RevD.01 24-Apr-2013
                22-Nov-2016 
 ******************************************
 %nprocshared=4
 Will use up to    4 processors via shared memory.
 %mem=812MB
 %chk=Toru-SiPh3-Type-I-Z-1-chkp-unrestrained.chk
 ----------------------------------------------------------------------
 # opt=(calcfc,ts,noeigen) freq=noraman oniom(b3lyp/6-31g(d,p):uff) geo
 m=connectivity
 ----------------------------------------------------------------------
 1/5=1,10=4,11=1,14=-1,18=1000020,38=1,52=2,56=1,57=2,61=3,64=2,115=4/1,3;
 2/9=110,12=2,17=6,18=5,40=1/2;
 1/5=1,10=4,11=1,14=-1,18=1000020,38=1,52=2,53=3172,61=3,64=2,115=4/20;
 3/5=30,11=9,16=1,25=1,30=1,41=10200000,43=2,71=2,140=1/1;
 4/20=10,22=2,24=3,112=4/2;
 7/7=1,25=1,33=-1,44=-1,88=4/16;
 1/5=1,10=4,11=1,14=-1,18=1000020,26=1,52=2,53=2032,61=3,115=4/20;
 3/5=1,6=6,7=101,11=2,16=1,25=1,30=1,71=2,74=-5,140=1/1,2,3;
 4/112=4/1;
 5/5=2,38=5/2;
 8/6=4,10=90,11=11,47=4/1;
 11/6=1,8=1,9=11,15=111,16=1,39=4/1,2,10;
 10/6=1,13=1,48=4/2;
 6/7=2,8=2,9=2,10=2,28=1/1;
 7/7=1,10=1,18=20,25=1,33=-1,88=4/1,2,3,16;
 1/5=1,10=4,11=1,14=-1,18=1000020,52=2,53=1022,61=3,64=2,115=4/20;
 3/5=30,11=9,16=1,25=1,30=1,41=10200000,43=2,71=2,140=1/1;
 4/20=10,22=2,24=3,112=4/2;
 7/7=1,25=1,33=-1,44=-1,88=4/16;
 1/5=1,10=4,11=1,14=-1,18=1000020,52=2,53=3016,61=3,64=2,115=4/20;
 7/9=1,25=1,44=-1,88=4/16;
 1/5=1,10=4,11=1,14=-1,18=1000020,52=2,61=3,64=2,115=4/3(2);
 2/9=110/2;
 99//99;
 2/9=110/2;
 1/5=1,11=1,14=-1,18=1000020,52=2,53=3173,61=3,64=2,115=4/20;
 3/5=30,11=9,16=1,25=1,30=1,41=10200000,43=2,71=1/1;
 4/16=2,20=10,22=1,24=3,112=4/2;
 7/7=1,33=-1,44=-1,88=4/16;
 1/5=1,11=1,14=-1,18=1000020,26=1,52=2,53=2033,61=3,115=4/20;
 3/5=1,6=6,7=101,11=2,16=1,25=1,30=1,71=1,74=-5/1,2,3;
 4/5=5,16=3,69=1,112=4/1;
 5/5=2,38=5/2;
 7/7=1,33=-1,88=4/1,2,3,16;
 1/5=1,11=1,14=-1,18=1000020,52=2,53=1023,61=3,64=2,115=4/20;
 3/5=30,11=9,16=1,25=1,30=1,41=10200000,43=2,71=1/1;
 4/16=2,20=10,22=1,24=3,112=4/2;
 7/7=1,33=-1,44=-1,88=4/16;
 1/5=1,11=1,14=-1,18=1000020,52=2,53=3015,61=3,64=2,115=4/20;
 7/9=1,44=-1,88=4/16;
 1/5=1,11=1,14=-1,18=1000020,52=2,61=3,64=2,115=4/3(-16);
 2/9=110/2;
 99//99;
 -------------------
 Title Card Required
 -------------------
 Symbolic Z-matrix:
 Charge =  0 Multiplicity = 1 for low   level calculation on real  system.
 Charge =  0 Multiplicity = 1 for high  level calculation on model system.
 Charge =  0 Multiplicity = 1 for low   level calculation on model system.
 C-C_R                0    -0.91678   5.455    -0.02669  L 
 C-C_R                0     0.24085   4.51864  -0.06989  L 
 C-C_R                0    -0.73795   6.76303  -0.24412  L 
 C-C_R                0     1.46454   5.00507  -0.37319  L 
 C-C_R                0     0.0713    3.05529   0.18214  L 
 C-C_R                0     1.65241   6.45614  -0.60623  L 
 C-C_R                0     2.61922   4.09362  -0.47346  L 
 C-C_R                0     0.60798   7.28844  -0.54044  L 
 C-C_R                0     1.10257   2.21096  -0.07174  L    H-H_     12    0.        0. 
 C-C_R                0    -1.22433   2.52835   0.68757  L 
 C-C_R                0     2.45676   2.76888  -0.34761  L 
 O-O_R                0     0.9893    0.86103   0.15855  H 
 Si-Si3               0     3.93933   1.63151  -0.37729  L 
 C-C_R                0    -1.75914   2.90443   1.87104  L 
 C-C_R                0    -1.96065   1.57211  -0.17654  L    H-H_     22    0.        0. 
 C-C_R                0    -3.13638   2.47175   2.22015  L 
 C-C_R                0    -1.03111   3.73817   2.85933  L 
 C-C_R                0    -3.84447   1.71864   1.36769  L 
 C-C_R                0    -3.71093   2.91033   3.50692  L 
 C-C_R                0    -3.23849   1.24028   0.10412  L 
 Si-Si3               0    -4.29923   0.14972  -0.98535  L 
 O-O_R                0    -1.29196   1.00978  -1.22791  H 
 C-C_R                0    -1.61396   4.0893    4.01179  L 
 C-C_R                0    -2.99262   3.66797   4.34295  L 
 P-P_3+5              0    -0.11469  -0.01377  -0.71475  H 
 O-O_2                0     0.51152  -0.60686  -1.95025  H 
 O-O_2                0    -0.69413  -0.95545   0.33027  H 
 C-C_R                0     5.53993   2.57707  -0.44211  L 
 C-C_R                0     3.8409    0.62972   1.1891   L 
 C-C_R                0     3.92007   0.56584  -1.89846  L 
 C-C_R                0    -5.69979   1.15595  -1.68102  L 
 C-C_R                0    -3.41301  -0.55187  -2.46686  L 
 C-C_R                0    -4.95495  -1.20639   0.11031  L 
 C-C_R                0     5.84818   3.29474  -1.53584  L 
 C-C_R                0     6.50844   2.50793   0.67972  L 
 C-C_R                0     3.7121    1.25846   2.37006  L 
 C-C_R                0     3.85547  -0.85274   1.15403  L 
 C-C_R                0     4.88078  -0.35328  -2.09162  L 
 C-C_R                0     2.89519   0.77859  -2.94776  L 
 C-C_R                0    -6.60046   0.57525  -2.49169  L 
 C-C_R                0    -5.8112    2.60628  -1.388    L 
 C-C_R                0    -2.96647   0.27272  -3.43022  L 
 C-C_R                0    -3.24865  -2.01727  -2.63379  L 
 C-C_R                0    -6.26393  -1.29823   0.40282  L 
 C-C_R                0    -4.00822  -2.17134   0.71704  L 
 C-C_R                0     7.12571   4.03354  -1.60677  L 
 C-C_R                0     7.98913   3.97884  -0.58616  L 
 C-C_R                0     7.66696   3.17567   0.61053  L 
 C-C_R                0     3.61225   0.48062   3.62224  L 
 C-C_R                0     3.6485   -0.85595   3.58523  L 
 C-C_R                0     3.77326  -1.55448   2.29123  L 
 C-C_R                0     4.87503  -1.19139  -3.30847  L 
 C-C_R                0     3.92441  -1.02157  -4.23468  L 
 C-C_R                0     2.89188   0.0179   -4.04971  L 
 C-C_R                0    -7.70822   1.3685   -3.0633   L 
 C-C_R                0    -7.81136   2.67334  -2.78543  L 
 C-C_R                0    -6.81452   3.32261  -1.91028  L 
 C-C_R                0    -2.25888  -0.26999  -4.60819  L 
 C-C_R                0    -2.09188  -1.59063  -4.73972  L 
 C-C_R                0    -2.62521  -2.50662  -3.71244  L 
 C-C_R                0    -6.75316  -2.36589   1.30047  L 
 C-C_R                0    -5.89307  -3.24064   1.8346   L 
 C-C_R                0    -4.45296  -3.13845   1.52807  L 
 C-C_R                0     3.92685  -5.96491   0.40367  H 
 C-C_R                0     2.83497  -5.16358   0.71972  H 
 C-C_R                0     2.49184  -4.08437  -0.11413  H 
 C-C_R                0     3.26537  -3.84206  -1.26617  H 
 C-C_R                0     4.35721  -4.64973  -1.57683  H 
 C-C_R                0     4.68926  -5.71524  -0.74224  H 
 C-C_R                0     1.39151  -3.13748   0.1175   H 
 N-N_R                0     0.84473  -2.75071   1.31202  H 
 S-S_3+4              0     0.30693  -3.70808   2.61579  H 
 O-O_2                0    -0.67452  -4.68884   2.14139  H 
 O-O_2                0     1.45348  -4.16324   3.4124   H 
 C-C_R                0    -0.49278  -2.34886   3.52814  H 
 C-C_R                0     0.2076   -1.73056   4.56098  H 
 C-C_R                0    -0.40177  -0.62332   5.15177  H 
 C-C_R                0    -1.6508   -0.21177   4.68813  H 
 C-C_R                0    -2.25974  -0.93471   3.66007  H 
 N-N_R                0    -1.6871   -1.99547   3.08317  H 
 N-N_R                0     0.15758  -3.23707  -2.3263   H 
 C-C_R                0     0.50916  -4.24982  -3.12389  H 
 C-C_R                0     0.26754  -5.47204  -2.45782  H 
 C-C_R                0    -0.23453  -5.15426  -1.20353  H 
 C-C_R                0    -0.23633  -3.73757  -1.08157  H 
 H-H_                 0    -1.91671   5.09096   0.16802  L 
 H-H_                 0    -1.5827    7.43901  -0.2117   L 
 H-H_                 0     2.63634   6.84819  -0.83211  L 
 H-H_                 0     3.59776   4.51973  -0.64063  L 
 H-H_                 0     0.74584   8.34818  -0.71205  L 
 H-H_                 0    -0.01338   4.05693   2.67434  L 
 H-H_                 0    -4.8575    1.42472   1.61737  L 
 H-H_                 0    -4.71634   2.61725   3.78471  L 
 H-H_                 0    -1.06504   4.69188   4.72405  L 
 H-H_                 0    -3.42466   3.97859   5.28551  L 
 H-H_                 0     0.18511  -1.9166    1.10875  H 
 H-H_                 0     5.16679   3.3438   -2.37652  L 
 H-H_                 0     6.29457   1.91513   1.55791  L 
 H-H_                 0     3.68072   2.33999   2.42135  L 
 H-H_                 0     3.9273   -1.38083   0.216    L 
 H-H_                 0     5.66452  -0.49854  -1.35835  L 
 H-H_                 0     2.13972   1.54419  -2.82991  L 
 H-H_                 0    -6.53005  -0.47837  -2.73318  L 
 H-H_                 0    -5.08248   3.10052  -0.76052  L 
 H-H_                 0    -3.1001    1.34446  -3.3472   L 
 H-H_                 0    -3.64156  -2.70573  -1.90061  L 
 H-H_                 0    -6.97923  -0.59208   0.00572  L 
 H-H_                 0    -2.95351  -2.1051    0.49844  L 
 H-H_                 0     7.36108   4.61783  -2.48688  L 
 H-H_                 0     8.926     4.51842  -0.63673  L 
 H-H_                 0     8.37315   3.12433   1.42919  L 
 H-H_                 0     3.51412   0.99531   4.5692   L 
 H-H_                 0     3.58349  -1.42753   4.50167  L 
 H-H_                 0     3.78899  -2.63613   2.26497  L 
 H-H_                 0     5.63743  -1.94732  -3.4445   L 
 H-H_                 0     3.91478  -1.6386   -5.12373  L 
 H-H_                 0     2.13522   0.16584  -4.80935  L 
 H-H_                 0    -8.43516   0.89106  -3.70748  L 
 H-H_                 0    -8.62165   3.25616  -3.20395  L 
 H-H_                 0    -6.89459   4.38078  -1.69723  L 
 H-H_                 0    -1.87434   0.40411  -5.36248  L 
 H-H_                 0    -1.57187  -1.99064  -5.60044  L 
 H-H_                 0    -2.5079   -3.57586  -3.83304  L 
 H-H_                 0    -7.80921  -2.43582   1.52692  L 
 H-H_                 0    -6.24982  -4.0219    2.49316  L 
 H-H_                 0    -3.75796  -3.84518   1.96297  L 
 H-H_                 0     4.19135  -6.78672   1.06204  H 
 H-H_                 0     2.27822  -5.36057   1.62665  H 
 H-H_                 0     3.01975  -2.99515  -1.89789  H 
 H-H_                 0     4.94975  -4.43904  -2.46181  H 
 H-H_                 0     5.5426   -6.3454   -0.97497  H 
 H-H_                 0     1.46378  -2.25665  -0.51379  H 
 H-H_                 0     1.17602  -2.10218   4.87041  H 
 H-H_                 0     0.0956   -0.08867   5.95498  H 
 H-H_                 0    -2.14968   0.65222   5.1147   H 
 H-H_                 0    -3.23813  -0.65167   3.28043  H 
 H-H_                 0     0.26122  -2.20623  -2.45817  H 
 H-H_                 0     0.91918  -4.07458  -4.10941  H 
 H-H_                 0     0.45912  -6.45485  -2.86407  H 
 H-H_                 0    -0.5331   -5.82929  -0.41411  H 
 H-H_                 0    -0.90938  -3.13001  -0.4919   H 
 
 Add virtual bond connecting atoms H96        and N71        Dist= 2.05D+00.
 Add virtual bond connecting atoms H96        and O27        Dist= 2.87D+00.
 Add virtual bond connecting atoms H137       and O26        Dist= 3.21D+00.
 I=   25 IAn= 15 Valence= 6.
          JB=  1 J=   12 IAn=  8 IBT= 1 Dist= 1.66D+00
          JB=  2 J=   22 IAn=  8 IBT= 1 Dist= 1.64D+00
          JB=  3 J=   26 IAn=  8 IBT= 2 Dist= 1.51D+00
          JB=  4 J=   27 IAn=  8 IBT= 2 Dist= 1.52D+00
 I=   72 IAn= 16 Valence= 6.
          JB=  1 J=   71 IAn=  7 IBT= 1 Dist= 1.70D+00
          JB=  2 J=   73 IAn=  8 IBT= 2 Dist= 1.47D+00
          JB=  3 J=   74 IAn=  8 IBT= 2 Dist= 1.47D+00
          JB=  4 J=   75 IAn=  6 IBT= 1 Dist= 1.82D+00
 I=   75 IAn=  6 Valence= 5.
          JB=  1 J=   72 IAn= 16 IBT= 1 Dist= 1.82D+00
          JB=  2 J=   76 IAn=  6 IBT=12 Dist= 1.39D+00
          JB=  3 J=   80 IAn=  7 IBT= 2 Dist= 1.32D+00
 I=   80 IAn=  7 Valence= 4.
          JB=  1 J=   75 IAn=  6 IBT= 2 Dist= 1.32D+00
          JB=  2 J=   79 IAn=  6 IBT=12 Dist= 1.34D+00
 I=   81 IAn=  7 Valence= 4.
          JB=  1 J=   82 IAn=  6 IBT=12 Dist= 1.34D+00
          JB=  2 J=   85 IAn=  6 IBT= 1 Dist= 1.40D+00
          JB=  3 J=  137 IAn=  1 IBT= 1 Dist= 1.04D+00
 Include all MM classes

 MM sanity checks:
 All charges sum to:                0.00000000
 Charges of atoms sum to:           0.00000000
 Layer 1 (S) has     45 atoms and charge   0.00000000 sum=   0.00000000
 Layer 2 (R) adds    96 atoms and charge   0.00000000 sum=   0.00000000
 MMInit generated parameter data with length LenPar=       22362.

 GradGradGradGradGradGradGradGradGradGradGradGradGradGradGradGradGradGrad
 Berny optimization.
 Initialization pass.
                           ----------------------------
                           !    Initial Parameters    !
                           ! (Angstroms and Degrees)  !
 --------------------------                            --------------------------
 ! Name  Definition              Value          Derivative Info.                !
 --------------------------------------------------------------------------------
 ! R1    R(9,12)                 1.3741         calculate D2E/DX2 analytically  !
 ! R2    R(12,25)                1.6573         calculate D2E/DX2 analytically  !
 ! R3    R(15,22)                1.367          calculate D2E/DX2 analytically  !
 ! R4    R(22,25)                1.6422         calculate D2E/DX2 analytically  !
 ! R5    R(25,26)                1.5068         calculate D2E/DX2 analytically  !
 ! R6    R(25,27)                1.5214         calculate D2E/DX2 analytically  !
 ! R7    R(26,137)               1.6966         calculate D2E/DX2 analytically  !
 ! R8    R(27,96)                1.5175         calculate D2E/DX2 analytically  !
 ! R9    R(64,65)                1.3908         calculate D2E/DX2 analytically  !
 ! R10   R(64,69)                1.3988         calculate D2E/DX2 analytically  !
 ! R11   R(64,127)               1.0857         calculate D2E/DX2 analytically  !
 ! R12   R(65,66)                1.4063         calculate D2E/DX2 analytically  !
 ! R13   R(65,128)               1.0823         calculate D2E/DX2 analytically  !
 ! R14   R(66,67)                1.4086         calculate D2E/DX2 analytically  !
 ! R15   R(66,70)                1.47           calculate D2E/DX2 analytically  !
 ! R16   R(67,68)                1.3932         calculate D2E/DX2 analytically  !
 ! R17   R(67,129)               1.0847         calculate D2E/DX2 analytically  !
 ! R18   R(68,69)                1.3936         calculate D2E/DX2 analytically  !
 ! R19   R(68,130)               1.0857         calculate D2E/DX2 analytically  !
 ! R20   R(69,131)               1.086          calculate D2E/DX2 analytically  !
 ! R21   R(70,71)                1.3695         calculate D2E/DX2 analytically  !
 ! R22   R(70,132)               1.0861         calculate D2E/DX2 analytically  !
 ! R23   R(71,72)                1.7046         calculate D2E/DX2 analytically  !
 ! R24   R(71,96)                1.0827         calculate D2E/DX2 analytically  !
 ! R25   R(72,73)                1.4664         calculate D2E/DX2 analytically  !
 ! R26   R(72,74)                1.4684         calculate D2E/DX2 analytically  !
 ! R27   R(72,75)                1.8219         calculate D2E/DX2 analytically  !
 ! R28   R(75,76)                1.3927         calculate D2E/DX2 analytically  !
 ! R29   R(75,80)                1.3226         calculate D2E/DX2 analytically  !
 ! R30   R(76,77)                1.3951         calculate D2E/DX2 analytically  !
 ! R31   R(76,133)               1.0824         calculate D2E/DX2 analytically  !
 ! R32   R(77,78)                1.3944         calculate D2E/DX2 analytically  !
 ! R33   R(77,134)               1.0855         calculate D2E/DX2 analytically  !
 ! R34   R(78,79)                1.3966         calculate D2E/DX2 analytically  !
 ! R35   R(78,135)               1.085          calculate D2E/DX2 analytically  !
 ! R36   R(79,80)                1.3364         calculate D2E/DX2 analytically  !
 ! R37   R(79,136)               1.087          calculate D2E/DX2 analytically  !
 ! R38   R(81,82)                1.3362         calculate D2E/DX2 analytically  !
 ! R39   R(81,85)                1.3982         calculate D2E/DX2 analytically  !
 ! R40   R(81,137)               1.0444         calculate D2E/DX2 analytically  !
 ! R41   R(82,83)                1.4127         calculate D2E/DX2 analytically  !
 ! R42   R(82,138)               1.0817         calculate D2E/DX2 analytically  !
 ! R43   R(83,84)                1.3879         calculate D2E/DX2 analytically  !
 ! R44   R(83,139)               1.0806         calculate D2E/DX2 analytically  !
 ! R45   R(84,85)                1.4219         calculate D2E/DX2 analytically  !
 ! R46   R(84,140)               1.0807         calculate D2E/DX2 analytically  !
 ! R47   R(85,141)               1.0816         calculate D2E/DX2 analytically  !
 ! A1    A(9,12,25)            119.0224         calculate D2E/DX2 analytically  !
 ! A2    A(15,22,25)           111.5135         calculate D2E/DX2 analytically  !
 ! A3    A(12,25,22)           108.2522         calculate D2E/DX2 analytically  !
 ! A4    A(12,25,26)           111.2842         calculate D2E/DX2 analytically  !
 ! A5    A(12,25,27)           102.6196         calculate D2E/DX2 analytically  !
 ! A6    A(22,25,26)           106.6807         calculate D2E/DX2 analytically  !
 ! A7    A(22,25,27)           109.1098         calculate D2E/DX2 analytically  !
 ! A8    A(26,25,27)           118.5469         calculate D2E/DX2 analytically  !
 ! A9    A(25,26,137)          123.7248         calculate D2E/DX2 analytically  !
 ! A10   A(25,27,96)           121.5827         calculate D2E/DX2 analytically  !
 ! A11   A(65,64,69)           120.7459         calculate D2E/DX2 analytically  !
 ! A12   A(65,64,127)          119.3131         calculate D2E/DX2 analytically  !
 ! A13   A(69,64,127)          119.9387         calculate D2E/DX2 analytically  !
 ! A14   A(64,65,66)           119.932          calculate D2E/DX2 analytically  !
 ! A15   A(64,65,128)          119.3038         calculate D2E/DX2 analytically  !
 ! A16   A(66,65,128)          120.7326         calculate D2E/DX2 analytically  !
 ! A17   A(65,66,67)           118.8781         calculate D2E/DX2 analytically  !
 ! A18   A(65,66,70)           125.698          calculate D2E/DX2 analytically  !
 ! A19   A(67,66,70)           115.4098         calculate D2E/DX2 analytically  !
 ! A20   A(66,67,68)           120.8638         calculate D2E/DX2 analytically  !
 ! A21   A(66,67,129)          119.0944         calculate D2E/DX2 analytically  !
 ! A22   A(68,67,129)          120.0145         calculate D2E/DX2 analytically  !
 ! A23   A(67,68,69)           119.7647         calculate D2E/DX2 analytically  !
 ! A24   A(67,68,130)          119.8014         calculate D2E/DX2 analytically  !
 ! A25   A(69,68,130)          120.4311         calculate D2E/DX2 analytically  !
 ! A26   A(64,69,68)           119.8144         calculate D2E/DX2 analytically  !
 ! A27   A(64,69,131)          120.0159         calculate D2E/DX2 analytically  !
 ! A28   A(68,69,131)          120.1674         calculate D2E/DX2 analytically  !
 ! A29   A(66,70,71)           128.1853         calculate D2E/DX2 analytically  !
 ! A30   A(66,70,132)          112.3962         calculate D2E/DX2 analytically  !
 ! A31   A(71,70,132)          107.7285         calculate D2E/DX2 analytically  !
 ! A32   A(70,71,72)           129.3826         calculate D2E/DX2 analytically  !
 ! A33   A(70,71,96)           107.282          calculate D2E/DX2 analytically  !
 ! A34   A(72,71,96)           112.5873         calculate D2E/DX2 analytically  !
 ! A35   A(71,72,73)           109.8385         calculate D2E/DX2 analytically  !
 ! A36   A(71,72,74)           110.0398         calculate D2E/DX2 analytically  !
 ! A37   A(71,72,75)            95.8823         calculate D2E/DX2 analytically  !
 ! A38   A(73,72,74)           119.3924         calculate D2E/DX2 analytically  !
 ! A39   A(73,72,75)           111.5433         calculate D2E/DX2 analytically  !
 ! A40   A(74,72,75)           107.5963         calculate D2E/DX2 analytically  !
 ! A41   A(72,75,76)           118.8057         calculate D2E/DX2 analytically  !
 ! A42   A(72,75,80)           115.2919         calculate D2E/DX2 analytically  !
 ! A43   A(76,75,80)           125.8029         calculate D2E/DX2 analytically  !
 ! A44   A(75,76,77)           116.5352         calculate D2E/DX2 analytically  !
 ! A45   A(75,76,133)          120.631          calculate D2E/DX2 analytically  !
 ! A46   A(77,76,133)          122.8329         calculate D2E/DX2 analytically  !
 ! A47   A(76,77,78)           118.9918         calculate D2E/DX2 analytically  !
 ! A48   A(76,77,134)          120.2723         calculate D2E/DX2 analytically  !
 ! A49   A(78,77,134)          120.7344         calculate D2E/DX2 analytically  !
 ! A50   A(77,78,79)           118.8515         calculate D2E/DX2 analytically  !
 ! A51   A(77,78,135)          121.0735         calculate D2E/DX2 analytically  !
 ! A52   A(79,78,135)          120.0748         calculate D2E/DX2 analytically  !
 ! A53   A(78,79,80)           122.8092         calculate D2E/DX2 analytically  !
 ! A54   A(78,79,136)          120.9833         calculate D2E/DX2 analytically  !
 ! A55   A(80,79,136)          116.2065         calculate D2E/DX2 analytically  !
 ! A56   A(75,80,79)           116.9869         calculate D2E/DX2 analytically  !
 ! A57   A(82,81,85)           109.5243         calculate D2E/DX2 analytically  !
 ! A58   A(82,81,137)          130.2878         calculate D2E/DX2 analytically  !
 ! A59   A(85,81,137)          119.5813         calculate D2E/DX2 analytically  !
 ! A60   A(81,82,83)           109.2259         calculate D2E/DX2 analytically  !
 ! A61   A(81,82,138)          121.3845         calculate D2E/DX2 analytically  !
 ! A62   A(83,82,138)          129.3857         calculate D2E/DX2 analytically  !
 ! A63   A(82,83,84)           106.8501         calculate D2E/DX2 analytically  !
 ! A64   A(82,83,139)          125.4002         calculate D2E/DX2 analytically  !
 ! A65   A(84,83,139)          127.7443         calculate D2E/DX2 analytically  !
 ! A66   A(83,84,85)           107.8236         calculate D2E/DX2 analytically  !
 ! A67   A(83,84,140)          128.1011         calculate D2E/DX2 analytically  !
 ! A68   A(85,84,140)          124.0072         calculate D2E/DX2 analytically  !
 ! A69   A(81,85,84)           106.2554         calculate D2E/DX2 analytically  !
 ! A70   A(81,85,141)          117.3603         calculate D2E/DX2 analytically  !
 ! A71   A(84,85,141)          127.3876         calculate D2E/DX2 analytically  !
 ! A72   A(27,96,71)           159.5979         calculate D2E/DX2 analytically  !
 ! A73   A(26,137,81)          155.131          calculate D2E/DX2 analytically  !
 ! D1    D(9,12,25,22)         -24.1895         calculate D2E/DX2 analytically  !
 ! D2    D(9,12,25,26)          92.7369         calculate D2E/DX2 analytically  !
 ! D3    D(9,12,25,27)        -139.4727         calculate D2E/DX2 analytically  !
 ! D4    D(15,22,25,12)        -62.248          calculate D2E/DX2 analytically  !
 ! D5    D(15,22,25,26)        177.8949         calculate D2E/DX2 analytically  !
 ! D6    D(15,22,25,27)         48.713          calculate D2E/DX2 analytically  !
 ! D7    D(12,25,26,137)       135.4264         calculate D2E/DX2 analytically  !
 ! D8    D(22,25,26,137)      -106.6933         calculate D2E/DX2 analytically  !
 ! D9    D(27,25,26,137)        16.8161         calculate D2E/DX2 analytically  !
 ! D10   D(12,25,27,96)        -58.337          calculate D2E/DX2 analytically  !
 ! D11   D(22,25,27,96)       -172.9976         calculate D2E/DX2 analytically  !
 ! D12   D(26,25,27,96)         64.7054         calculate D2E/DX2 analytically  !
 ! D13   D(25,26,137,81)       -41.9887         calculate D2E/DX2 analytically  !
 ! D14   D(25,27,96,71)        -66.7792         calculate D2E/DX2 analytically  !
 ! D15   D(69,64,65,66)         -0.3192         calculate D2E/DX2 analytically  !
 ! D16   D(69,64,65,128)      -178.2879         calculate D2E/DX2 analytically  !
 ! D17   D(127,64,65,66)       179.129          calculate D2E/DX2 analytically  !
 ! D18   D(127,64,65,128)        1.1603         calculate D2E/DX2 analytically  !
 ! D19   D(65,64,69,68)          0.2241         calculate D2E/DX2 analytically  !
 ! D20   D(65,64,69,131)       179.6838         calculate D2E/DX2 analytically  !
 ! D21   D(127,64,69,68)      -179.2207         calculate D2E/DX2 analytically  !
 ! D22   D(127,64,69,131)        0.239          calculate D2E/DX2 analytically  !
 ! D23   D(64,65,66,67)          0.3611         calculate D2E/DX2 analytically  !
 ! D24   D(64,65,66,70)       -178.2015         calculate D2E/DX2 analytically  !
 ! D25   D(128,65,66,67)       178.3003         calculate D2E/DX2 analytically  !
 ! D26   D(128,65,66,70)        -0.2623         calculate D2E/DX2 analytically  !
 ! D27   D(65,66,67,68)         -0.3176         calculate D2E/DX2 analytically  !
 ! D28   D(65,66,67,129)      -178.4174         calculate D2E/DX2 analytically  !
 ! D29   D(70,66,67,68)        178.3901         calculate D2E/DX2 analytically  !
 ! D30   D(70,66,67,129)         0.2902         calculate D2E/DX2 analytically  !
 ! D31   D(65,66,70,71)         27.97           calculate D2E/DX2 analytically  !
 ! D32   D(65,66,70,132)       165.9684         calculate D2E/DX2 analytically  !
 ! D33   D(67,66,70,71)       -150.6365         calculate D2E/DX2 analytically  !
 ! D34   D(67,66,70,132)       -12.6382         calculate D2E/DX2 analytically  !
 ! D35   D(66,67,68,69)          0.2262         calculate D2E/DX2 analytically  !
 ! D36   D(66,67,68,130)      -179.1587         calculate D2E/DX2 analytically  !
 ! D37   D(129,67,68,69)       178.3086         calculate D2E/DX2 analytically  !
 ! D38   D(129,67,68,130)       -1.0763         calculate D2E/DX2 analytically  !
 ! D39   D(67,68,69,64)         -0.1753         calculate D2E/DX2 analytically  !
 ! D40   D(67,68,69,131)      -179.6341         calculate D2E/DX2 analytically  !
 ! D41   D(130,68,69,64)       179.2057         calculate D2E/DX2 analytically  !
 ! D42   D(130,68,69,131)       -0.2531         calculate D2E/DX2 analytically  !
 ! D43   D(66,70,71,72)        -49.1525         calculate D2E/DX2 analytically  !
 ! D44   D(66,70,71,96)        169.9677         calculate D2E/DX2 analytically  !
 ! D45   D(132,70,71,72)       171.3533         calculate D2E/DX2 analytically  !
 ! D46   D(132,70,71,96)        30.4735         calculate D2E/DX2 analytically  !
 ! D47   D(70,71,72,73)        -54.791          calculate D2E/DX2 analytically  !
 ! D48   D(70,71,72,74)         78.6002         calculate D2E/DX2 analytically  !
 ! D49   D(70,71,72,75)       -170.2337         calculate D2E/DX2 analytically  !
 ! D50   D(96,71,72,73)         84.4775         calculate D2E/DX2 analytically  !
 ! D51   D(96,71,72,74)       -142.1314         calculate D2E/DX2 analytically  !
 ! D52   D(96,71,72,75)        -30.9652         calculate D2E/DX2 analytically  !
 ! D53   D(70,71,96,27)         18.4854         calculate D2E/DX2 analytically  !
 ! D54   D(72,71,96,27)       -129.6312         calculate D2E/DX2 analytically  !
 ! D55   D(71,72,75,76)        -97.239          calculate D2E/DX2 analytically  !
 ! D56   D(71,72,75,80)         79.3458         calculate D2E/DX2 analytically  !
 ! D57   D(73,72,75,76)        148.7154         calculate D2E/DX2 analytically  !
 ! D58   D(73,72,75,80)        -34.6998         calculate D2E/DX2 analytically  !
 ! D59   D(74,72,75,76)         15.9691         calculate D2E/DX2 analytically  !
 ! D60   D(74,72,75,80)       -167.4461         calculate D2E/DX2 analytically  !
 ! D61   D(72,75,76,77)        174.7109         calculate D2E/DX2 analytically  !
 ! D62   D(72,75,76,133)        -4.9514         calculate D2E/DX2 analytically  !
 ! D63   D(80,75,76,77)         -1.4813         calculate D2E/DX2 analytically  !
 ! D64   D(80,75,76,133)       178.8564         calculate D2E/DX2 analytically  !
 ! D65   D(72,75,80,79)       -174.9392         calculate D2E/DX2 analytically  !
 ! D66   D(76,75,80,79)          1.3706         calculate D2E/DX2 analytically  !
 ! D67   D(75,76,77,78)          0.2327         calculate D2E/DX2 analytically  !
 ! D68   D(75,76,77,134)      -179.3211         calculate D2E/DX2 analytically  !
 ! D69   D(133,76,77,78)       179.8869         calculate D2E/DX2 analytically  !
 ! D70   D(133,76,77,134)        0.3331         calculate D2E/DX2 analytically  !
 ! D71   D(76,77,78,79)          0.947          calculate D2E/DX2 analytically  !
 ! D72   D(76,77,78,135)      -179.2285         calculate D2E/DX2 analytically  !
 ! D73   D(134,77,78,79)      -179.5013         calculate D2E/DX2 analytically  !
 ! D74   D(134,77,78,135)        0.3232         calculate D2E/DX2 analytically  !
 ! D75   D(77,78,79,80)         -1.1094         calculate D2E/DX2 analytically  !
 ! D76   D(77,78,79,136)       179.2643         calculate D2E/DX2 analytically  !
 ! D77   D(135,78,79,80)       179.0643         calculate D2E/DX2 analytically  !
 ! D78   D(135,78,79,136)       -0.562          calculate D2E/DX2 analytically  !
 ! D79   D(78,79,80,75)         -0.0159         calculate D2E/DX2 analytically  !
 ! D80   D(136,79,80,75)       179.6271         calculate D2E/DX2 analytically  !
 ! D81   D(85,81,82,83)          4.1253         calculate D2E/DX2 analytically  !
 ! D82   D(85,81,82,138)      -175.216          calculate D2E/DX2 analytically  !
 ! D83   D(137,81,82,83)       174.9602         calculate D2E/DX2 analytically  !
 ! D84   D(137,81,82,138)       -4.3812         calculate D2E/DX2 analytically  !
 ! D85   D(82,81,85,84)         -5.7783         calculate D2E/DX2 analytically  !
 ! D86   D(82,81,85,141)      -155.4375         calculate D2E/DX2 analytically  !
 ! D87   D(137,81,85,84)      -177.7472         calculate D2E/DX2 analytically  !
 ! D88   D(137,81,85,141)       32.5936         calculate D2E/DX2 analytically  !
 ! D89   D(82,81,137,26)      -146.5595         calculate D2E/DX2 analytically  !
 ! D90   D(85,81,137,26)        23.5003         calculate D2E/DX2 analytically  !
 ! D91   D(81,82,83,84)         -0.7489         calculate D2E/DX2 analytically  !
 ! D92   D(81,82,83,139)      -179.9544         calculate D2E/DX2 analytically  !
 ! D93   D(138,82,83,84)       178.5236         calculate D2E/DX2 analytically  !
 ! D94   D(138,82,83,139)       -0.6819         calculate D2E/DX2 analytically  !
 ! D95   D(82,83,84,85)         -2.8319         calculate D2E/DX2 analytically  !
 ! D96   D(82,83,84,140)      -179.8934         calculate D2E/DX2 analytically  !
 ! D97   D(139,83,84,85)       176.3491         calculate D2E/DX2 analytically  !
 ! D98   D(139,83,84,140)       -0.7124         calculate D2E/DX2 analytically  !
 ! D99   D(83,84,85,81)          5.2207         calculate D2E/DX2 analytically  !
 ! D100  D(83,84,85,141)       150.8433         calculate D2E/DX2 analytically  !
 ! D101  D(140,84,85,81)      -177.5686         calculate D2E/DX2 analytically  !
 ! D102  D(140,84,85,141)      -31.9461         calculate D2E/DX2 analytically  !
 --------------------------------------------------------------------------------
 Trust Radius=3.00D-01 FncErr=1.00D-07 GrdErr=1.00D-07
 Number of steps in this run=    232 maximum allowed number of steps=    270.
 Search for a saddle point of order  1.
 GradGradGradGradGradGradGradGradGradGradGradGradGradGradGradGradGradGrad

 Stoichiometry    C72H56N3O6PSSi2
 Framework group  C1[X(C72H56N3O6PSSi2)]
 Deg. of freedom   417
 Full point group                 C1      NOp   1
 Largest Abelian subgroup         C1      NOp   1
 Largest concise Abelian subgroup C1      NOp   1
                         Standard orientation:                         
 ---------------------------------------------------------------------
 Center     Atomic      Atomic             Coordinates (Angstroms)
 Number     Number       Type             X           Y           Z
 ---------------------------------------------------------------------
      1          6    10061000       -0.916777    5.455005   -0.026692
      2          6    10061000        0.240853    4.518644   -0.069891
      3          6    10061000       -0.737948    6.763032   -0.244119
      4          6    10061000        1.464536    5.005073   -0.373188
      5          6    10061000        0.071298    3.055288    0.182143
      6          6    10061000        1.652408    6.456142   -0.606226
      7          6    10061000        2.619222    4.093616   -0.473464
      8          6    10061000        0.607976    7.288444   -0.540437
      9          6    10061000        1.102565    2.210957   -0.071740
     10          6    10061000       -1.224331    2.528349    0.687572
     11          6    10061000        2.456759    2.768876   -0.347612
     12          8    10081000        0.989295    0.861032    0.158548
     13         14    10141003        3.939334    1.631505   -0.377285
     14          6    10061000       -1.759137    2.904431    1.871035
     15          6    10061000       -1.960654    1.572105   -0.176535
     16          6    10061000       -3.136375    2.471750    2.220149
     17          6    10061000       -1.031114    3.738169    2.859326
     18          6    10061000       -3.844468    1.718637    1.367685
     19          6    10061000       -3.710926    2.910327    3.506919
     20          6    10061000       -3.238494    1.240276    0.104122
     21         14    10141003       -4.299228    0.149720   -0.985352
     22          8    10081000       -1.291962    1.009776   -1.227909
     23          6    10061000       -1.613960    4.089301    4.011790
     24          6    10061000       -2.992618    3.667970    4.342950
     25         15    10151004       -0.114688   -0.013765   -0.714750
     26          8    10081002        0.511524   -0.606856   -1.950250
     27          8    10081002       -0.694133   -0.955447    0.330265
     28          6    10061000        5.539929    2.577069   -0.442112
     29          6    10061000        3.840898    0.629723    1.189096
     30          6    10061000        3.920067    0.565843   -1.898459
     31          6    10061000       -5.699785    1.155953   -1.681022
     32          6    10061000       -3.413013   -0.551871   -2.466862
     33          6    10061000       -4.954954   -1.206385    0.110307
     34          6    10061000        5.848175    3.294736   -1.535844
     35          6    10061000        6.508442    2.507925    0.679724
     36          6    10061000        3.712097    1.258459    2.370061
     37          6    10061000        3.855474   -0.852742    1.154031
     38          6    10061000        4.880779   -0.353275   -2.091621
     39          6    10061000        2.895194    0.778588   -2.947755
     40          6    10061000       -6.600460    0.575248   -2.491692
     41          6    10061000       -5.811204    2.606282   -1.387995
     42          6    10061000       -2.966474    0.272716   -3.430224
     43          6    10061000       -3.248648   -2.017266   -2.633792
     44          6    10061000       -6.263934   -1.298234    0.402822
     45          6    10061000       -4.008224   -2.171343    0.717039
     46          6    10061000        7.125711    4.033538   -1.606772
     47          6    10061000        7.989129    3.978838   -0.586155
     48          6    10061000        7.666964    3.175672    0.610528
     49          6    10061000        3.612245    0.480621    3.622237
     50          6    10061000        3.648499   -0.855952    3.585225
     51          6    10061000        3.773263   -1.554482    2.291226
     52          6    10061000        4.875029   -1.191389   -3.308474
     53          6    10061000        3.924407   -1.021568   -4.234682
     54          6    10061000        2.891884    0.017897   -4.049708
     55          6    10061000       -7.708220    1.368503   -3.063296
     56          6    10061000       -7.811364    2.673340   -2.785432
     57          6    10061000       -6.814523    3.322609   -1.910277
     58          6    10061000       -2.258884   -0.269993   -4.608190
     59          6    10061000       -2.091882   -1.590627   -4.739722
     60          6    10061000       -2.625205   -2.506618   -3.712441
     61          6    10061000       -6.753156   -2.365892    1.300471
     62          6    10061000       -5.893072   -3.240640    1.834604
     63          6    10061000       -4.452958   -3.138452    1.528074
     64          6    10061000        3.926847   -5.964909    0.403666
     65          6    10061000        2.834970   -5.163582    0.719720
     66          6    10061000        2.491842   -4.084369   -0.114128
     67          6    10061000        3.265366   -3.842058   -1.266171
     68          6    10061000        4.357214   -4.649728   -1.576831
     69          6    10061000        4.689262   -5.715241   -0.742244
     70          6    10061000        1.391512   -3.137479    0.117495
     71          7    10071000        0.844731   -2.750705    1.312024
     72         16    10161004        0.306933   -3.708084    2.615794
     73          8    10081002       -0.674516   -4.688843    2.141388
     74          8    10081002        1.453482   -4.163244    3.412402
     75          6    10061000       -0.492779   -2.348862    3.528139
     76          6    10061000        0.207600   -1.730563    4.560975
     77          6    10061000       -0.401765   -0.623318    5.151765
     78          6    10061000       -1.650802   -0.211767    4.688132
     79          6    10061000       -2.259735   -0.934712    3.660070
     80          7    10071000       -1.687101   -1.995469    3.083172
     81          7    10071000        0.157584   -3.237069   -2.326304
     82          6    10061000        0.509158   -4.249820   -3.123891
     83          6    10061000        0.267543   -5.472038   -2.457819
     84          6    10061000       -0.234533   -5.154262   -1.203530
     85          6    10061000       -0.236329   -3.737565   -1.081567
     86          1    10011000       -1.916707    5.090961    0.168016
     87          1    10011000       -1.582704    7.439006   -0.211700
     88          1    10011000        2.636342    6.848186   -0.832109
     89          1    10011000        3.597757    4.519731   -0.640634
     90          1    10011000        0.745835    8.348184   -0.712054
     91          1    10011000       -0.013381    4.056926    2.674341
     92          1    10011000       -4.857497    1.424716    1.617374
     93          1    10011000       -4.716337    2.617252    3.784713
     94          1    10011000       -1.065038    4.691875    4.724047
     95          1    10011000       -3.424660    3.978593    5.285512
     96          1    10011000        0.185114   -1.916598    1.108754
     97          1    10011000        5.166786    3.343803   -2.376523
     98          1    10011000        6.294568    1.915125    1.557906
     99          1    10011000        3.680719    2.339992    2.421349
    100          1    10011000        3.927303   -1.380828    0.215996
    101          1    10011000        5.664519   -0.498538   -1.358345
    102          1    10011000        2.139717    1.544192   -2.829911
    103          1    10011000       -6.530054   -0.478370   -2.733177
    104          1    10011000       -5.082480    3.100517   -0.760516
    105          1    10011000       -3.100099    1.344461   -3.347200
    106          1    10011000       -3.641556   -2.705731   -1.900605
    107          1    10011000       -6.979231   -0.592078    0.005717
    108          1    10011000       -2.953506   -2.105103    0.498439
    109          1    10011000        7.361078    4.617826   -2.486884
    110          1    10011000        8.925996    4.518421   -0.636731
    111          1    10011000        8.373148    3.124335    1.429189
    112          1    10011000        3.514121    0.995307    4.569201
    113          1    10011000        3.583494   -1.427534    4.501669
    114          1    10011000        3.788994   -2.636131    2.264974
    115          1    10011000        5.637432   -1.947321   -3.444495
    116          1    10011000        3.914783   -1.638601   -5.123728
    117          1    10011000        2.135216    0.165839   -4.809353
    118          1    10011000       -8.435165    0.891064   -3.707482
    119          1    10011000       -8.621653    3.256159   -3.203954
    120          1    10011000       -6.894592    4.380784   -1.697227
    121          1    10011000       -1.874343    0.404108   -5.362479
    122          1    10011000       -1.571871   -1.990638   -5.600437
    123          1    10011000       -2.507900   -3.575863   -3.833035
    124          1    10011000       -7.809213   -2.435819    1.526915
    125          1    10011000       -6.249817   -4.021904    2.493161
    126          1    10011000       -3.757956   -3.845176    1.962966
    127          1    10011000        4.191347   -6.786715    1.062041
    128          1    10011000        2.278221   -5.360569    1.626646
    129          1    10011000        3.019747   -2.995148   -1.897890
    130          1    10011000        4.949751   -4.439042   -2.461806
    131          1    10011000        5.542596   -6.345402   -0.974968
    132          1    10011000        1.463776   -2.256653   -0.513787
    133          1    10011000        1.176021   -2.102178    4.870406
    134          1    10011000        0.095596   -0.088670    5.954980
    135          1    10011000       -2.149679    0.652224    5.114698
    136          1    10011000       -3.238130   -0.651674    3.280428
    137          1    10011000        0.261216   -2.206226   -2.458168
    138          1    10011000        0.919179   -4.074577   -4.109410
    139          1    10011000        0.459116   -6.454849   -2.864073
    140          1    10011000       -0.533095   -5.829288   -0.414112
    141          1    10011000       -0.909376   -3.130010   -0.491895
 ---------------------------------------------------------------------
 Rotational constants (GHZ):      0.0288718      0.0226654      0.0186361
 ONIOM: Cut between C /H     9 and O    12 factor= 0.686809 0.686809
 ONIOM: Cut between C /H    15 and O    22 factor= 0.686809 0.686809
 ONIOM: saving gridpoint 17
 ONIOM: generating point  3 -- low level on real system.
 Standard basis: Dummy (5D, 7F)
 There are   141 symmetry adapted cartesian basis functions of A   symmetry.
 There are   141 symmetry adapted basis functions of A   symmetry.
   141 basis functions,   141 primitive gaussians,   141 cartesian basis functions
   111 alpha electrons      111 beta electrons
       nuclear repulsion energy      2156.5777809781 Hartrees.
 NAtoms=  141 NActive=  141 NUniq=  141 SFac= 1.00D+00 NAtFMM=   60 NAOKFM=T Big=T
 Integral buffers will be    131072 words long.
 Raffenetti 1 integral format.
 Two-electron integral symmetry is turned on.
 Compact hessian requested for MM, so only forces done here.
 UFF calculation of energy and first derivatives.
 Energy=     48.2823013     NIter=   0.
 Dipole moment=       0.000000       0.000000       0.000000
 ***** Axes restored to original set *****
 Cartesian Forces:  Max   212.220528498 RMS    18.867908834
 ONIOM: saving gridpoint  3
 ONIOM: restoring gridpoint 17
 ONIOM: generating point  2 -- high level on model system.
 Standard basis: 6-31G(d,p) (6D, 7F)
 There are   503 symmetry adapted cartesian basis functions of A   symmetry.
 There are   503 symmetry adapted basis functions of A   symmetry.
   503 basis functions,   930 primitive gaussians,   503 cartesian basis functions
   107 alpha electrons      107 beta electrons
       nuclear repulsion energy      3049.1785437689 Hartrees.
 NAtoms=  141 NActive=   45 NUniq=   45 SFac= 1.00D+00 NAtFMM=   60 NAOKFM=F Big=F
 Integral buffers will be    131072 words long.
 Raffenetti 2 integral format.
 Two-electron integral symmetry is turned on.
 One-electron integrals computed using PRISM.
 NBasis=   503 RedAO= T EigKep=  4.56D-04  NBF=   503
 NBsUse=   503 1.00D-06 EigRej= -1.00D+00 NBFU=   503
 ExpMin= 9.98D-02 ExpMax= 2.19D+04 ExpMxC= 3.30D+03 IAcc=2 IRadAn=         4 AccDes= 0.00D+00
 Harris functional with IExCor=  402 and IRadAn=       4 diagonalized for initial guess.
 HarFok:  IExCor=  402 AccDes= 0.00D+00 IRadAn=         4 IDoV= 1 UseB2=F ITyADJ=14
 ICtDFT=  3500011 ScaDFX=  1.000000  1.000000  1.000000  1.000000
 FoFCou: FMM=F IPFlag=           0 FMFlag=      100000 FMFlg1=           0
         NFxFlg=           0 DoJE=T BraDBF=F KetDBF=T FulRan=T
         wScrn=  0.000000 ICntrl=     500 IOpCl=  0 I1Cent=   200000004 NGrid=           0
         NMat0=    1 NMatS0=      1 NMatT0=    0 NMatD0=    1 NMtDS0=    0 NMtDT0=    0
 Petite list used in FoFCou.
 Requested convergence on RMS density matrix=1.00D-08 within 128 cycles.
 Requested convergence on MAX density matrix=1.00D-06.
 Requested convergence on             energy=1.00D-06.
 No special actions if energy rises.
 Integral accuracy reduced to 1.0D-05 until final iterations.
 Initial convergence to 1.0D-05 achieved.  Increase integral accuracy.
 SCF Done:  E(RB3LYP) =  -1975.67867905     A.U. after   16 cycles
            NFock= 16  Conv=0.58D-08     -V/T= 2.0072
 DoSCS=F DFT=T ScalE2(SS,OS)=  1.000000  1.000000
 Range of M.O.s used for correlation:     1   503
 NBasis=   503 NAE=   107 NBE=   107 NFC=     0 NFV=     0
 NROrb=    503 NOA=   107 NOB=   107 NVA=   396 NVB=   396
 Symmetrizing basis deriv contribution to polar:
 IMax=3 JMax=2 DiffMx= 0.00D+00
 G2DrvN: will do    46 centers at a time, making    1 passes.
 Calling FoFCou, ICntrl=  3107 FMM=F I1Cent=   0 AccDes= 0.00D+00.
 End of G2Drv F.D. properties file   721 does not exist.
 End of G2Drv F.D. properties file   722 does not exist.
 End of G2Drv F.D. properties file   788 does not exist.
          IDoAtm=11111111111111111111111111111111111111111111111111
          IDoAtm=11111111111111111111111111111111111111111111111111
          IDoAtm=11111111111111111111111111111111111111111
          IDoAtC=111111111111111111111111111111111111111111111
          Differentiating once with respect to nuclear coordinates.
          There are   138 degrees of freedom in the 1st order CPHF.  IDoFFX=6 NUNeed=     0.
    132 vectors produced by pass  0 Test12= 4.24D-14 1.00D-09 XBig12= 2.90D-01 1.25D-01.
 AX will form   132 AO Fock derivatives at one time.
    132 vectors produced by pass  1 Test12= 4.24D-14 1.00D-09 XBig12= 2.23D-02 3.18D-02.
    132 vectors produced by pass  2 Test12= 4.24D-14 1.00D-09 XBig12= 3.37D-04 2.78D-03.
    132 vectors produced by pass  3 Test12= 4.24D-14 1.00D-09 XBig12= 1.22D-06 1.44D-04.
    132 vectors produced by pass  4 Test12= 4.24D-14 1.00D-09 XBig12= 3.72D-09 5.58D-06.
    123 vectors produced by pass  5 Test12= 4.24D-14 1.00D-09 XBig12= 4.74D-12 1.47D-07.
     34 vectors produced by pass  6 Test12= 4.24D-14 1.00D-09 XBig12= 4.53D-15 6.58D-09.
 InvSVY:  IOpt=1 It=  1 EMax= 1.17D-15
 Solved reduced A of dimension   817 with   138 vectors.
 End of Minotr F.D. properties file   721 does not exist.
 End of Minotr F.D. properties file   722 does not exist.
 End of Minotr F.D. properties file   788 does not exist.

 **********************************************************************

            Population analysis using the SCF density.

 **********************************************************************

 Orbital symmetries:
       Occupied  (A) (A) (A) (A) (A) (A) (A) (A) (A) (A) (A) (A)
                 (A) (A) (A) (A) (A) (A) (A) (A) (A) (A) (A) (A)
                 (A) (A) (A) (A) (A) (A) (A) (A) (A) (A) (A) (A)
                 (A) (A) (A) (A) (A) (A) (A) (A) (A) (A) (A) (A)
                 (A) (A) (A) (A) (A) (A) (A) (A) (A) (A) (A) (A)
                 (A) (A) (A) (A) (A) (A) (A) (A) (A) (A) (A) (A)
                 (A) (A) (A) (A) (A) (A) (A) (A) (A) (A) (A) (A)
                 (A) (A) (A) (A) (A) (A) (A) (A) (A) (A) (A) (A)
                 (A) (A) (A) (A) (A) (A) (A) (A) (A) (A) (A)
       Virtual   (A) (A) (A) (A) (A) (A) (A) (A) (A) (A) (A) (A)
                 (A) (A) (A) (A) (A) (A) (A) (A) (A) (A) (A) (A)
                 (A) (A) (A) (A) (A) (A) (A) (A) (A) (A) (A) (A)
                 (A) (A) (A) (A) (A) (A) (A) (A) (A) (A) (A) (A)
                 (A) (A) (A) (A) (A) (A) (A) (A) (A) (A) (A) (A)
                 (A) (A) (A) (A) (A) (A) (A) (A) (A) (A) (A) (A)
                 (A) (A) (A) (A) (A) (A) (A) (A) (A) (A) (A) (A)
                 (A) (A) (A) (A) (A) (A) (A) (A) (A) (A) (A) (A)
                 (A) (A) (A) (A) (A) (A) (A) (A) (A) (A) (A) (A)
                 (A) (A) (A) (A) (A) (A) (A) (A) (A) (A) (A) (A)
                 (A) (A) (A) (A) (A) (A) (A) (A) (A) (A) (A) (A)
                 (A) (A) (A) (A) (A) (A) (A) (A) (A) (A) (A) (A)
                 (A) (A) (A) (A) (A) (A) (A) (A) (A) (A) (A) (A)
                 (A) (A) (A) (A) (A) (A) (A) (A) (A) (A) (A) (A)
                 (A) (A) (A) (A) (A) (A) (A) (A) (A) (A) (A) (A)
                 (A) (A) (A) (A) (A) (A) (A) (A) (A) (A) (A) (A)
                 (A) (A) (A) (A) (A) (A) (A) (A) (A) (A) (A) (A)
                 (A) (A) (A) (A) (A) (A) (A) (A) (A) (A) (A) (A)
                 (A) (A) (A) (A) (A) (A) (A) (A) (A) (A) (A) (A)
                 (A) (A) (A) (A) (A) (A) (A) (A) (A) (A) (A) (A)
                 (A) (A) (A) (A) (A) (A) (A) (A) (A) (A) (A) (A)
                 (A) (A) (A) (A) (A) (A) (A) (A) (A) (A) (A) (A)
                 (A) (A) (A) (A) (A) (A) (A) (A) (A) (A) (A) (A)
                 (A) (A) (A) (A) (A) (A) (A) (A) (A) (A) (A) (A)
                 (A) (A) (A) (A) (A) (A) (A) (A) (A) (A) (A) (A)
                 (A) (A) (A) (A) (A) (A) (A) (A) (A) (A) (A) (A)
                 (A) (A) (A) (A) (A) (A) (A) (A) (A) (A) (A) (A)
                 (A) (A) (A) (A) (A) (A) (A) (A) (A) (A) (A) (A)
                 (A) (A) (A) (A) (A) (A) (A) (A) (A) (A) (A) (A)
                 (A) (A) (A) (A) (A) (A) (A) (A) (A) (A) (A) (A)
                 (A) (A) (A) (A) (A) (A) (A) (A) (A) (A) (A) (A)
                 (A) (A) (A) (A) (A) (A) (A) (A) (A) (A) (A) (A)
                 (A) (A) (A) (A) (A) (A) (A) (A) (A) (A) (A) (A)
 The electronic state is 1-A.
 Alpha  occ. eigenvalues --  -89.11775 -77.20363 -19.15666 -19.15070 -19.14978
 Alpha  occ. eigenvalues --  -19.14923 -19.08452 -19.08420 -14.38334 -14.37125
 Alpha  occ. eigenvalues --  -14.35826 -10.27891 -10.26586 -10.24581 -10.24507
 Alpha  occ. eigenvalues --  -10.23165 -10.22689 -10.22361 -10.22288 -10.21545
 Alpha  occ. eigenvalues --  -10.20529 -10.20370 -10.20108 -10.19968 -10.19918
 Alpha  occ. eigenvalues --  -10.19879 -10.19533  -8.14365  -6.64749  -6.10876
 Alpha  occ. eigenvalues --   -6.10749  -6.10664  -4.81248  -4.81099  -4.80917
 Alpha  occ. eigenvalues --   -1.11486  -1.05056  -1.00445  -1.00233  -0.99096
 Alpha  occ. eigenvalues --   -0.97321  -0.95459  -0.94073  -0.91338  -0.86610
 Alpha  occ. eigenvalues --   -0.82771  -0.80151  -0.78739  -0.77867  -0.75573
 Alpha  occ. eigenvalues --   -0.73936  -0.71722  -0.66319  -0.65622  -0.62824
 Alpha  occ. eigenvalues --   -0.61798  -0.60147  -0.58687  -0.58457  -0.57565
 Alpha  occ. eigenvalues --   -0.56462  -0.55874  -0.54401  -0.52921  -0.52486
 Alpha  occ. eigenvalues --   -0.50858  -0.49573  -0.48865  -0.47061  -0.46396
 Alpha  occ. eigenvalues --   -0.45907  -0.45460  -0.44963  -0.43759  -0.43280
 Alpha  occ. eigenvalues --   -0.43082  -0.42711  -0.42571  -0.42117  -0.41771
 Alpha  occ. eigenvalues --   -0.40421  -0.40271  -0.39966  -0.39904  -0.38764
 Alpha  occ. eigenvalues --   -0.37606  -0.36363  -0.36109  -0.35348  -0.35099
 Alpha  occ. eigenvalues --   -0.34065  -0.32815  -0.32133  -0.32028  -0.31673
 Alpha  occ. eigenvalues --   -0.30816  -0.30709  -0.29862  -0.28806  -0.28353
 Alpha  occ. eigenvalues --   -0.27624  -0.26874  -0.26122  -0.25885  -0.25517
 Alpha  occ. eigenvalues --   -0.24477  -0.22979
 Alpha virt. eigenvalues --   -0.08559  -0.05419  -0.03922  -0.01353  -0.00533
 Alpha virt. eigenvalues --    0.04261   0.05630   0.05992   0.07335   0.07429
 Alpha virt. eigenvalues --    0.08520   0.09324   0.09868   0.10638   0.11069
 Alpha virt. eigenvalues --    0.11986   0.13024   0.13694   0.14125   0.14831
 Alpha virt. eigenvalues --    0.15321   0.15604   0.15963   0.16319   0.16701
 Alpha virt. eigenvalues --    0.17132   0.17295   0.17947   0.18441   0.18845
 Alpha virt. eigenvalues --    0.20595   0.20857   0.21439   0.22622   0.23494
 Alpha virt. eigenvalues --    0.23951   0.24570   0.26172   0.26933   0.27773
 Alpha virt. eigenvalues --    0.28839   0.29296   0.29793   0.30393   0.31776
 Alpha virt. eigenvalues --    0.32397   0.33636   0.34057   0.34748   0.35749
 Alpha virt. eigenvalues --    0.36686   0.39602   0.40567   0.41575   0.42363
 Alpha virt. eigenvalues --    0.42868   0.43337   0.44397   0.47397   0.47808
 Alpha virt. eigenvalues --    0.48553   0.49517   0.50542   0.51102   0.52255
 Alpha virt. eigenvalues --    0.52419   0.53629   0.53985   0.54332   0.55938
 Alpha virt. eigenvalues --    0.56602   0.56932   0.57186   0.57379   0.57585
 Alpha virt. eigenvalues --    0.57626   0.57908   0.58304   0.58983   0.59500
 Alpha virt. eigenvalues --    0.59964   0.60313   0.60664   0.61376   0.61925
 Alpha virt. eigenvalues --    0.62303   0.62841   0.63535   0.64077   0.64990
 Alpha virt. eigenvalues --    0.65174   0.66153   0.66846   0.68820   0.70339
 Alpha virt. eigenvalues --    0.70928   0.72634   0.73739   0.75074   0.76006
 Alpha virt. eigenvalues --    0.76425   0.76991   0.77531   0.78335   0.79131
 Alpha virt. eigenvalues --    0.79192   0.79558   0.80124   0.80614   0.81132
 Alpha virt. eigenvalues --    0.81252   0.81583   0.81739   0.82127   0.82251
 Alpha virt. eigenvalues --    0.83382   0.84404   0.84648   0.87216   0.87526
 Alpha virt. eigenvalues --    0.88279   0.88617   0.88900   0.89901   0.90028
 Alpha virt. eigenvalues --    0.91379   0.91953   0.92528   0.93062   0.93740
 Alpha virt. eigenvalues --    0.94206   0.95747   0.96557   0.97328   0.97792
 Alpha virt. eigenvalues --    0.98405   0.98753   0.99320   1.00061   1.01012
 Alpha virt. eigenvalues --    1.02049   1.02519   1.03875   1.05004   1.05916
 Alpha virt. eigenvalues --    1.07598   1.08329   1.09060   1.09671   1.09789
 Alpha virt. eigenvalues --    1.10994   1.11636   1.12712   1.13400   1.14652
 Alpha virt. eigenvalues --    1.15457   1.16161   1.16390   1.17753   1.18285
 Alpha virt. eigenvalues --    1.18670   1.20434   1.21745   1.22116   1.23649
 Alpha virt. eigenvalues --    1.24228   1.24946   1.25638   1.26430   1.26885
 Alpha virt. eigenvalues --    1.29098   1.30381   1.31392   1.31888   1.32371
 Alpha virt. eigenvalues --    1.32892   1.34278   1.35235   1.35566   1.36578
 Alpha virt. eigenvalues --    1.36898   1.37180   1.38855   1.39431   1.39762
 Alpha virt. eigenvalues --    1.40288   1.40696   1.41132   1.41649   1.43660
 Alpha virt. eigenvalues --    1.44076   1.44862   1.45495   1.46258   1.46553
 Alpha virt. eigenvalues --    1.48486   1.52200   1.54110   1.56054   1.58035
 Alpha virt. eigenvalues --    1.59007   1.59686   1.60360   1.63205   1.64020
 Alpha virt. eigenvalues --    1.66044   1.67913   1.69051   1.70497   1.72336
 Alpha virt. eigenvalues --    1.73494   1.74982   1.75736   1.76510   1.77136
 Alpha virt. eigenvalues --    1.78226   1.79753   1.79979   1.80538   1.80966
 Alpha virt. eigenvalues --    1.81277   1.82201   1.83063   1.83734   1.84557
 Alpha virt. eigenvalues --    1.85929   1.86645   1.86926   1.87361   1.88010
 Alpha virt. eigenvalues --    1.89925   1.90746   1.91251   1.91553   1.92532
 Alpha virt. eigenvalues --    1.93393   1.93850   1.95154   1.95635   1.96323
 Alpha virt. eigenvalues --    1.96900   1.97277   1.97649   1.98554   1.99078
 Alpha virt. eigenvalues --    1.99678   2.00263   2.00954   2.02375   2.03157
 Alpha virt. eigenvalues --    2.04164   2.05110   2.06445   2.07310   2.08629
 Alpha virt. eigenvalues --    2.08807   2.10706   2.11265   2.12509   2.13444
 Alpha virt. eigenvalues --    2.14484   2.16248   2.17092   2.17938   2.18278
 Alpha virt. eigenvalues --    2.20537   2.22261   2.23608   2.25379   2.26192
 Alpha virt. eigenvalues --    2.27479   2.28981   2.29949   2.30864   2.31756
 Alpha virt. eigenvalues --    2.32623   2.33090   2.34259   2.35685   2.36183
 Alpha virt. eigenvalues --    2.36633   2.37197   2.37623   2.38238   2.39460
 Alpha virt. eigenvalues --    2.39935   2.40904   2.41274   2.42079   2.43123
 Alpha virt. eigenvalues --    2.43794   2.44301   2.44810   2.46012   2.46844
 Alpha virt. eigenvalues --    2.47367   2.47524   2.47656   2.48830   2.50128
 Alpha virt. eigenvalues --    2.50430   2.51517   2.52600   2.53447   2.53675
 Alpha virt. eigenvalues --    2.54629   2.55003   2.55937   2.56650   2.58532
 Alpha virt. eigenvalues --    2.59230   2.59701   2.62381   2.62794   2.66246
 Alpha virt. eigenvalues --    2.66692   2.67177   2.67417   2.67749   2.69294
 Alpha virt. eigenvalues --    2.69406   2.69837   2.73006   2.73161   2.73261
 Alpha virt. eigenvalues --    2.75403   2.76291   2.76635   2.77576   2.78184
 Alpha virt. eigenvalues --    2.80814   2.81607   2.82423   2.84177   2.84743
 Alpha virt. eigenvalues --    2.85855   2.87090   2.90877   2.92344   2.95721
 Alpha virt. eigenvalues --    2.97070   3.01329   3.04057   3.05054   3.06845
 Alpha virt. eigenvalues --    3.08362   3.14843   3.19647   3.21002   3.21320
 Alpha virt. eigenvalues --    3.23065   3.25662   3.25951   3.27409   3.29239
 Alpha virt. eigenvalues --    3.32926   3.34312   3.38032   3.39740   3.42048
 Alpha virt. eigenvalues --    3.43183   3.45192   3.48073   3.50695   3.52093
 Alpha virt. eigenvalues --    3.55021   3.69437   3.78189   3.79633   3.84838
 Alpha virt. eigenvalues --    3.89137   3.91912   3.95974   4.00097   4.02123
 Alpha virt. eigenvalues --    4.06342   4.08982   4.09570   4.11598   4.13185
 Alpha virt. eigenvalues --    4.14816   4.15539   4.16880   4.21251   4.23580
 Alpha virt. eigenvalues --    4.28278   4.30030   4.36410   4.41257   4.44005
 Alpha virt. eigenvalues --    4.49956   4.61226   4.70116   4.70287   4.75314
 Alpha virt. eigenvalues --    4.85702
          Condensed to atoms (all electrons):
 Mulliken charges:
               1
     1  C    0.000000
     2  C    0.000000
     3  C    0.000000
     4  C    0.000000
     5  C    0.000000
     6  C    0.000000
     7  C    0.000000
     8  C    0.000000
     9  H    0.316759
    10  C    0.000000
    11  C    0.000000
    12  O   -0.589316
    13  Si   0.000000
    14  C    0.000000
    15  H    0.318452
    16  C    0.000000
    17  C    0.000000
    18  C    0.000000
    19  C    0.000000
    20  C    0.000000
    21  Si   0.000000
    22  O   -0.559969
    23  C    0.000000
    24  C    0.000000
    25  P    1.178584
    26  O   -0.659689
    27  O   -0.684782
    28  C    0.000000
    29  C    0.000000
    30  C    0.000000
    31  C    0.000000
    32  C    0.000000
    33  C    0.000000
    34  C    0.000000
    35  C    0.000000
    36  C    0.000000
    37  C    0.000000
    38  C    0.000000
    39  C    0.000000
    40  C    0.000000
    41  C    0.000000
    42  C    0.000000
    43  C    0.000000
    44  C    0.000000
    45  C    0.000000
    46  C    0.000000
    47  C    0.000000
    48  C    0.000000
    49  C    0.000000
    50  C    0.000000
    51  C    0.000000
    52  C    0.000000
    53  C    0.000000
    54  C    0.000000
    55  C    0.000000
    56  C    0.000000
    57  C    0.000000
    58  C    0.000000
    59  C    0.000000
    60  C    0.000000
    61  C    0.000000
    62  C    0.000000
    63  C    0.000000
    64  C   -0.097752
    65  C   -0.107037
    66  C    0.153948
    67  C   -0.121507
    68  C   -0.089945
    69  C   -0.075529
    70  C    0.001469
    71  N   -0.655441
    72  S    1.275273
    73  O   -0.510852
    74  O   -0.541429
    75  C   -0.030374
    76  C   -0.059030
    77  C   -0.056982
    78  C   -0.089286
    79  C    0.108028
    80  N   -0.391612
    81  N   -0.445121
    82  C    0.123023
    83  C   -0.125993
    84  C   -0.055261
    85  C   -0.037280
    86  H    0.000000
    87  H    0.000000
    88  H    0.000000
    89  H    0.000000
    90  H    0.000000
    91  H    0.000000
    92  H    0.000000
    93  H    0.000000
    94  H    0.000000
    95  H    0.000000
    96  H    0.407713
    97  H    0.000000
    98  H    0.000000
    99  H    0.000000
   100  H    0.000000
   101  H    0.000000
   102  H    0.000000
   103  H    0.000000
   104  H    0.000000
   105  H    0.000000
   106  H    0.000000
   107  H    0.000000
   108  H    0.000000
   109  H    0.000000
   110  H    0.000000
   111  H    0.000000
   112  H    0.000000
   113  H    0.000000
   114  H    0.000000
   115  H    0.000000
   116  H    0.000000
   117  H    0.000000
   118  H    0.000000
   119  H    0.000000
   120  H    0.000000
   121  H    0.000000
   122  H    0.000000
   123  H    0.000000
   124  H    0.000000
   125  H    0.000000
   126  H    0.000000
   127  H    0.099110
   128  H    0.139117
   129  H    0.111667
   130  H    0.094429
   131  H    0.094094
   132  H    0.178467
   133  H    0.146483
   134  H    0.116536
   135  H    0.108121
   136  H    0.118349
   137  H    0.347028
   138  H    0.128258
   139  H    0.101152
   140  H    0.133078
   141  H    0.185049
 Sum of Mulliken charges =   0.00000
 Mulliken charges with hydrogens summed into heavy atoms:
               1
     1  C    0.000000
     2  C    0.000000
     3  C    0.000000
     4  C    0.000000
     5  C    0.000000
     6  C    0.000000
     7  C    0.000000
     8  C    0.000000
    10  C    0.000000
    11  C    0.000000
    12  O   -0.272557
    13  Si   0.000000
    14  C    0.000000
    16  C    0.000000
    17  C    0.000000
    18  C    0.000000
    19  C    0.000000
    20  C    0.000000
    21  Si   0.000000
    22  O   -0.241517
    23  C    0.000000
    24  C    0.000000
    25  P    1.178584
    26  O   -0.659689
    27  O   -0.684782
    28  C    0.000000
    29  C    0.000000
    30  C    0.000000
    31  C    0.000000
    32  C    0.000000
    33  C    0.000000
    34  C    0.000000
    35  C    0.000000
    36  C    0.000000
    37  C    0.000000
    38  C    0.000000
    39  C    0.000000
    40  C    0.000000
    41  C    0.000000
    42  C    0.000000
    43  C    0.000000
    44  C    0.000000
    45  C    0.000000
    46  C    0.000000
    47  C    0.000000
    48  C    0.000000
    49  C    0.000000
    50  C    0.000000
    51  C    0.000000
    52  C    0.000000
    53  C    0.000000
    54  C    0.000000
    55  C    0.000000
    56  C    0.000000
    57  C    0.000000
    58  C    0.000000
    59  C    0.000000
    60  C    0.000000
    61  C    0.000000
    62  C    0.000000
    63  C    0.000000
    64  C    0.001358
    65  C    0.032080
    66  C    0.153948
    67  C   -0.009840
    68  C    0.004484
    69  C    0.018565
    70  C    0.179936
    71  N   -0.247728
    72  S    1.275273
    73  O   -0.510852
    74  O   -0.541429
    75  C   -0.030374
    76  C    0.087453
    77  C    0.059554
    78  C    0.018834
    79  C    0.226377
    80  N   -0.391612
    81  N   -0.098093
    82  C    0.251281
    83  C   -0.024841
    84  C    0.077818
    85  C    0.147769
 APT charges:
               1
     1  C    0.000000
     2  C    0.000000
     3  C    0.000000
     4  C    0.000000
     5  C    0.000000
     6  C    0.000000
     7  C    0.000000
     8  C    0.000000
     9  H    0.674453
    10  C    0.000000
    11  C    0.000000
    12  O   -0.836460
    13  Si   0.000000
    14  C    0.000000
    15  H    0.530033
    16  C    0.000000
    17  C    0.000000
    18  C    0.000000
    19  C    0.000000
    20  C    0.000000
    21  Si   0.000000
    22  O   -0.562911
    23  C    0.000000
    24  C    0.000000
    25  P    0.464206
    26  O   -0.386162
    27  O   -0.630575
    28  C    0.000000
    29  C    0.000000
    30  C    0.000000
    31  C    0.000000
    32  C    0.000000
    33  C    0.000000
    34  C    0.000000
    35  C    0.000000
    36  C    0.000000
    37  C    0.000000
    38  C    0.000000
    39  C    0.000000
    40  C    0.000000
    41  C    0.000000
    42  C    0.000000
    43  C    0.000000
    44  C    0.000000
    45  C    0.000000
    46  C    0.000000
    47  C    0.000000
    48  C    0.000000
    49  C    0.000000
    50  C    0.000000
    51  C    0.000000
    52  C    0.000000
    53  C    0.000000
    54  C    0.000000
    55  C    0.000000
    56  C    0.000000
    57  C    0.000000
    58  C    0.000000
    59  C    0.000000
    60  C    0.000000
    61  C    0.000000
    62  C    0.000000
    63  C    0.000000
    64  C   -0.280833
    65  C   -0.513062
    66  C   -0.928883
    67  C   -0.552146
    68  C   -0.429788
    69  C   -0.244922
    70  C   -0.175471
    71  N   -0.289154
    72  S   -0.151730
    73  O   -0.009049
    74  O    0.257754
    75  C   -0.220609
    76  C   -0.400402
    77  C   -0.387685
    78  C   -0.450492
    79  C   -0.346263
    80  N   -0.693842
    81  N   -0.642796
    82  C   -0.378495
    83  C   -0.140290
    84  C   -0.650940
    85  C   -0.475490
    86  H    0.000000
    87  H    0.000000
    88  H    0.000000
    89  H    0.000000
    90  H    0.000000
    91  H    0.000000
    92  H    0.000000
    93  H    0.000000
    94  H    0.000000
    95  H    0.000000
    96  H    0.101427
    97  H    0.000000
    98  H    0.000000
    99  H    0.000000
   100  H    0.000000
   101  H    0.000000
   102  H    0.000000
   103  H    0.000000
   104  H    0.000000
   105  H    0.000000
   106  H    0.000000
   107  H    0.000000
   108  H    0.000000
   109  H    0.000000
   110  H    0.000000
   111  H    0.000000
   112  H    0.000000
   113  H    0.000000
   114  H    0.000000
   115  H    0.000000
   116  H    0.000000
   117  H    0.000000
   118  H    0.000000
   119  H    0.000000
   120  H    0.000000
   121  H    0.000000
   122  H    0.000000
   123  H    0.000000
   124  H    0.000000
   125  H    0.000000
   126  H    0.000000
   127  H    1.189757
   128  H    0.358233
   129  H   -0.158507
   130  H    0.726776
   131  H    1.400930
   132  H    0.011058
   133  H    0.672262
   134  H    0.842567
   135  H    0.692884
   136  H    0.375119
   137  H   -0.028296
   138  H    0.728853
   139  H    1.293561
   140  H    0.721686
   141  H   -0.076305
 Sum of APT charges =   0.00000
 APT charges with hydrogens summed into heavy atoms:
               1
     1  C    0.000000
     2  C    0.000000
     3  C    0.000000
     4  C    0.000000
     5  C    0.000000
     6  C    0.000000
     7  C    0.000000
     8  C    0.000000
    10  C    0.000000
    11  C    0.000000
    12  O   -0.162007
    13  Si   0.000000
    14  C    0.000000
    16  C    0.000000
    17  C    0.000000
    18  C    0.000000
    19  C    0.000000
    20  C    0.000000
    21  Si   0.000000
    22  O   -0.032878
    23  C    0.000000
    24  C    0.000000
    25  P    0.464206
    26  O   -0.386162
    27  O   -0.630575
    28  C    0.000000
    29  C    0.000000
    30  C    0.000000
    31  C    0.000000
    32  C    0.000000
    33  C    0.000000
    34  C    0.000000
    35  C    0.000000
    36  C    0.000000
    37  C    0.000000
    38  C    0.000000
    39  C    0.000000
    40  C    0.000000
    41  C    0.000000
    42  C    0.000000
    43  C    0.000000
    44  C    0.000000
    45  C    0.000000
    46  C    0.000000
    47  C    0.000000
    48  C    0.000000
    49  C    0.000000
    50  C    0.000000
    51  C    0.000000
    52  C    0.000000
    53  C    0.000000
    54  C    0.000000
    55  C    0.000000
    56  C    0.000000
    57  C    0.000000
    58  C    0.000000
    59  C    0.000000
    60  C    0.000000
    61  C    0.000000
    62  C    0.000000
    63  C    0.000000
    64  C    0.908924
    65  C   -0.154830
    66  C   -0.928883
    67  C   -0.710653
    68  C    0.296988
    69  C    1.156008
    70  C   -0.164413
    71  N   -0.187727
    72  S   -0.151730
    73  O   -0.009049
    74  O    0.257754
    75  C   -0.220609
    76  C    0.271859
    77  C    0.454882
    78  C    0.242393
    79  C    0.028855
    80  N   -0.693842
    81  N   -0.671092
    82  C    0.350357
    83  C    1.153271
    84  C    0.070746
    85  C   -0.551796
 Electronic spatial extent (au):  <R**2>=          16494.9044
 Charge=              0.0000 electrons
 Dipole moment (field-independent basis, Debye):
    X=              1.3746    Y=              1.5469    Z=              1.3117  Tot=              2.4501
 Quadrupole moment (field-independent basis, Debye-Ang):
   XX=           -158.8478   YY=           -155.8555   ZZ=           -147.6509
   XY=            -17.6085   XZ=            -11.9112   YZ=             27.2200
 Traceless Quadrupole moment (field-independent basis, Debye-Ang):
   XX=             -4.7297   YY=             -1.7374   ZZ=              6.4672
   XY=            -17.6085   XZ=            -11.9112   YZ=             27.2200
 Octapole moment (field-independent basis, Debye-Ang**2):
  XXX=           -298.5044  YYY=           1347.1260  ZZZ=           -258.5768  XYY=            -12.9432
  XXY=            429.4931  XXZ=           -126.0767  XZZ=           -109.0810  YZZ=            466.1378
  YYZ=           -229.1521  XYZ=             18.9056
 Hexadecapole moment (field-independent basis, Debye-Ang**3):
 XXXX=          -3486.2174 YYYY=         -11688.4680 ZZZZ=          -5428.0161 XXXY=           1671.9542
 XXXZ=            359.8142 YYYX=           1439.6864 YYYZ=            886.1126 ZZZX=            391.9144
 ZZZY=            695.8708 XXYY=          -2319.2893 XXZZ=          -1590.6069 YYZZ=          -3124.5078
 XXYZ=            252.9010 YYXZ=             84.5088 ZZXY=            597.5776
 N-N= 3.049178543769D+03 E-N=-1.073930842126D+04  KE= 1.961483690001D+03
  Exact polarizability:   0.000   0.000   0.000   0.000   0.000   0.000
 Approx polarizability: 381.694 -59.936 386.735  12.139  45.748 453.897
 Calling FoFJK, ICntrl=    100147 FMM=F ISym2X=0 I1Cent= 0 IOpClX= 0 NMat=1 NMatS=1 NMatT=0.
 ***** Axes restored to original set *****
 Cartesian Forces:  Max     0.026477464 RMS     0.002828392
 SvSCFP is copying densities from files   528 and   530 to   603.
 ONIOM: saving gridpoint  2
 ONIOM: restoring gridpoint 17
 ONIOM: generating point  1 -- low level on model system.
 Generating MM parameters for model system.
 I=   25 IAn= 15 Valence= 6.
          JB=  1 J=   12 IAn=  8 IBT= 1 Dist= 1.66D+00
          JB=  2 J=   22 IAn=  8 IBT= 1 Dist= 1.64D+00
          JB=  3 J=   26 IAn=  8 IBT= 2 Dist= 1.51D+00
          JB=  4 J=   27 IAn=  8 IBT= 2 Dist= 1.52D+00
 I=   72 IAn= 16 Valence= 6.
          JB=  1 J=   71 IAn=  7 IBT= 1 Dist= 1.70D+00
          JB=  2 J=   73 IAn=  8 IBT= 2 Dist= 1.47D+00
          JB=  3 J=   74 IAn=  8 IBT= 2 Dist= 1.47D+00
          JB=  4 J=   75 IAn=  6 IBT= 1 Dist= 1.82D+00
 I=   75 IAn=  6 Valence= 5.
          JB=  1 J=   72 IAn= 16 IBT= 1 Dist= 1.82D+00
          JB=  2 J=   76 IAn=  6 IBT=12 Dist= 1.39D+00
          JB=  3 J=   80 IAn=  7 IBT= 2 Dist= 1.32D+00
 I=   80 IAn=  7 Valence= 4.
          JB=  1 J=   75 IAn=  6 IBT= 2 Dist= 1.32D+00
          JB=  2 J=   79 IAn=  6 IBT=12 Dist= 1.34D+00
 I=   81 IAn=  7 Valence= 4.
          JB=  1 J=   82 IAn=  6 IBT=12 Dist= 1.34D+00
          JB=  2 J=   85 IAn=  6 IBT= 1 Dist= 1.40D+00
          JB=  3 J=  137 IAn=  1 IBT= 1 Dist= 1.04D+00
 Include all MM classes

 MM sanity checks:
 All charges sum to:                0.00000000
 Charges of atoms sum to:           0.00000000
 MMInit generated parameter data with length LenPar=        7533.
 Standard basis: Dummy (5D, 7F)
 There are    45 symmetry adapted cartesian basis functions of A   symmetry.
 There are    45 symmetry adapted basis functions of A   symmetry.
    45 basis functions,    45 primitive gaussians,    45 cartesian basis functions
    34 alpha electrons       34 beta electrons
       nuclear repulsion energy       296.6820511552 Hartrees.
 NAtoms=  141 NActive=   45 NUniq=   45 SFac= 1.00D+00 NAtFMM=   60 NAOKFM=F Big=F
 Integral buffers will be    131072 words long.
 Raffenetti 1 integral format.
 Two-electron integral symmetry is turned on.
 Compact hessian requested for MM, so only forces done here.
 UFF calculation of energy and first derivatives.
 Energy=     48.1457169     NIter=   0.
 Dipole moment=       0.000000       0.000000       0.000000
 ***** Axes restored to original set *****
 Cartesian Forces:  Max   212.220510956 RMS    18.867922753
 ONIOM: saving gridpoint  1
 ONIOM: restoring gridpoint  3
 ONIOM: calculating energy.
 ONIOM: gridpoint  1 method:  low   system:  model energy:    48.145716887664
 ONIOM: gridpoint  2 method:  high  system:  model energy: -1975.678679049776
 ONIOM: gridpoint  3 method:  low   system:  real  energy:    48.282301342357
 ONIOM: extrapolated energy =   -1975.542094595083
 ONIOM: calculating first derivatives.
 ONIOM: calculating second derivatives.
 ONIOM: calculating electric field derivatives.
 ONIOM: Integrating ONIOM file  4 number   619
 ONIOM: Dipole        = 5.40796019D-01 6.08601121D-01 5.16060427D-01
 ONIOM: Polarizability= 0.00000000D+00 0.00000000D+00 0.00000000D+00
                        0.00000000D+00 0.00000000D+00 0.00000000D+00
 ONIOM: Dipole moment (Debye):
    X=     1.3746    Y=     1.5469    Z=     1.3117  Tot=     2.4501
 ONIOM: Integrating ONIOM file  5 number   695
 Rotating derivatives to standard orientation.
 ***** Axes restored to original set *****
 -------------------------------------------------------------------
 Center     Atomic                   Forces (Hartrees/Bohr)
 Number     Number              X              Y              Z
 -------------------------------------------------------------------
      1        6           0.000004387   -0.000003833   -0.000006627
      2        6           0.000005173    0.000004005   -0.000005628
      3        6           0.000007816   -0.000011989   -0.000005250
      4        6           0.000011315   -0.000010226   -0.000007189
      5        6          -0.000019008   -0.000008319    0.000014549
      6        6           0.000014046   -0.000004095   -0.000007818
      7        6           0.000002270   -0.000010945   -0.000007260
      8        6          -0.000005111   -0.000004719   -0.000003703
      9        6           0.000011364    0.000066840    0.000012774
     10        6          -0.000019871   -0.000010779    0.000017608
     11        6          -0.000024768   -0.000006193   -0.000002375
     12        8          -0.000033741   -0.000004532    0.000015711
     13       14           0.000002651   -0.000002446   -0.000001145
     14        6           0.000001954    0.000000501    0.000005387
     15        6          -0.000020042   -0.000022812   -0.000000941
     16        6           0.000013287    0.000013074   -0.000005330
     17        6           0.000007059    0.000008247   -0.000009601
     18        6          -0.000004486   -0.000000600    0.000004974
     19        6          -0.000000762    0.000009121    0.000000032
     20        6          -0.000016795   -0.000008984    0.000008033
     21       14           0.000003574   -0.000000379    0.000001644
     22        8           0.000017761    0.000016155    0.000020107
     23        6          -0.000010667    0.000003560    0.000005294
     24        6          -0.000006957    0.000002797    0.000003406
     25       15          -0.000020369   -0.000009029   -0.000020656
     26        8           0.000003803    0.000001918    0.000020346
     27        8           0.000014835    0.000015708    0.000041262
     28        6           0.000007194   -0.000000205   -0.000000498
     29        6           0.000003664   -0.000000252   -0.000000472
     30        6           0.000004663   -0.000000222   -0.000002302
[...]
 00010269,-0.00007663,0.00002412,0.00001981,0.00005785,-0.00003357,-0.0
 0000866,0.00001386,0.00001945,-0.00004487,0.00040366,0.00085219,0.0010
 0307,0.00035937,0.00013194,-0.00086016,-0.00154030,-0.00164863,-0.0001
 5583,0.00075354,0.00080084,-0.00017005,0.00028386,0.00027450,0.0000518
 3,0.00033351,0.00003315,-0.00001398,-0.00009007,0.00010898,0.00003043,
 0.00002470,-0.00001745,0.00002455,-0.00002303,0.00001183,-0.00000321,0
 .00003268,-0.00001485,0.00004056,-0.00006298,0.00006100,-0.00001763,0.
 00042369,-0.00374638,0.00095304,0.00380959,-0.00132733,-0.00383902,0.0
 0423087,0.01760599,-0.00798430,0.06548961,0.14185069,-0.21650825,-0.00
 321449,-0.00503762,0.00713703,0.,0.,0.,0.,0.,0.,0.,0.,0.,0.,0.,0.,0.,0
 .,0.,0.,0.,0.,0.,0.,0.,0.,0.,0.,0.,0.,0.,0.,0.,0.,0.00010021,-0.000033
 53,0.00002170,0.,0.,0.,0.,0.,0.,0.,0.,0.,0.00000003,0.00000003,-0.0000
 0005,0.,0.,0.,0.,-0.00000001,0.,0.,0.,0.,0.,0.,0.,0.,-0.00000002,0.,0.
 00000093,-0.00000093,-0.00000012,0.,0.,0.,-0.00000056,0.00000085,-0.00
 000050,0.,0.,0.,0.,0.,0.,0.,0.,0.,0.,0.,0.,0.00000003,0.00000003,0.000
 00002,0.00000021,0.00000015,0.00000005,-0.00000002,-0.00000001,0.,-0.0
 0000003,-0.00000003,0.00000002,-0.00000001,-0.00000003,0.00000001,0.,0
 .,0.,0.,0.,0.,0.,0.,0.,0.,-0.00000003,0.00000001,0.00000004,-0.0000001
 5,0.00000016,0.00000167,-0.00000188,0.00000220,-0.00000001,0.,0.,-0.00
 000010,0.00000003,0.00000002,-0.00000226,0.00000137,0.00000085,0.00000
 091,0.00000850,0.00001210,-0.00012176,-0.00003425,-0.00000788,0.000001
 60,-0.00000665,-0.00001263,-0.00000326,-0.00000098,-0.00000044,0.00000
 534,0.00000045,-0.00000508,0.00004926,0.00001236,0.00002837,-0.0000022
 7,-0.00000993,-0.00001299,-0.00000552,0.00001353,0.00000936,-0.0000009
 4,0.00000837,0.00000239,-0.00001135,0.00000891,0.00000200,0.00045701,0
 .00016428,0.00077177,0.00004624,0.00107921,-0.00006779,-0.00136895,-0.
 00039063,0.00030785,-0.07006188,-0.15073506,0.21977190,-0.00000002,0.,
 0.,-0.00000003,0.00000004,0.,0.,0.,0.,0.,0.00000004,0.,-0.00000016,0.0
 0000023,0.00000002,0.,0.00000001,0.,0.00000001,0.00000009,0.,0.,0.,0.,
 -0.00002173,-0.00001770,0.00000230,-0.00000037,-0.00000016,-0.00000003
 ,0.00000010,0.00000037,0.,0.00009979,0.00006265,-0.00012197,0.00000088
 ,0.00000115,0.00000002,-0.00000013,-0.00000014,-0.00000005,0.00009082,
 -0.00001549,0.00002017,-0.00000001,-0.00000031,-0.00000015,-0.00000004
 ,0.,0.,0.00000027,-0.00000095,-0.00000036,0.,-0.00000008,-0.00000006,0
 .00000074,-0.00000358,-0.00000046,0.00001073,-0.00001455,0.00000232,-0
 .00033626,0.00036600,-0.00034875,-0.00000002,-0.00000001,0.,0.,-0.0000
 0003,-0.00000002,-0.00002722,-0.00167481,0.00118785,-0.00004632,-0.000
 00193,-0.00087513,-0.00150460,0.00225914,0.00007657,0.00000006,0.00000
 007,0.,0.00000071,0.00000072,0.00000032,0.00000078,0.00000076,-0.00000
 029,0.00000047,-0.00000055,0.00000016,0.00000476,-0.00000932,0.0000072
 3,0.00001072,-0.00000624,-0.00000184,0.00000003,0.00000003,0.,0.000000
 03,0.00000003,0.,0.00000022,0.00000029,0.00000019,0.00000260,0.0000015
 1,0.00000107,0.00000067,0.00000039,-0.00000023,0.00000062,0.00000094,-
 0.00000060,0.00000032,-0.00000026,0.00000014,0.00000010,-0.00000017,0.
 00000003,0.00000034,-0.00000257,0.00000224,-0.00006685,0.00003057,-0.0
 0005932,0.00000237,-0.00000095,-0.00000045,-0.00006746,0.00001939,0.00
 002366,0.,0.00000001,0.,0.,0.,0.,0.00000001,0.00000001,0.,0.00000017,0
 .00000020,0.00000023,0.00000044,0.00000030,0.00000052,0.00000196,0.000
 00082,0.00000143,0.00000057,0.00000023,-0.00000034,0.00000053,0.000000
 30,-0.00000054,0.00000051,0.00000064,-0.00000073,0.00000007,-0.0000000
 6,0.00000003,0.00000003,-0.00000003,0.00000001,0.00000003,-0.00000005,
 0.00000001,-0.00000041,-0.00000091,0.00000132,-0.00000099,-0.00000108,
 0.00000299,-0.00000394,-0.00000094,0.00000487,0.00000143,-0.00000022,-
 0.00000050,0.00000305,0.00000008,-0.00000166,0.00001445,0.00000003,-0.
 00001065,0.00050772,-0.00017529,-0.00036722,-0.00044731,0.00068655,-0.
 00032630,0.00110109,-0.00176858,-0.00087024,0.00016122,-0.00016746,0.0
 0083878,-0.00008640,-0.00000940,-0.00013786,-0.00011782,-0.00016322,0.
 00029477,-0.02071288,0.00112595,-0.00641264,0.00140756,0.00234449,0.00
 638227,0.00141239,0.00251381,-0.00415225,-0.00108363,-0.00097535,0.000
 43146,-0.00006104,-0.00053669,0.00063634,0.00029224,-0.00041333,0.0000
 1812,-0.00021140,0.00014525,0.00005370,0.00006288,-0.00005628,-0.00001
 820,-0.00010628,0.00001402,-0.00004513,0.00011096,0.00010169,0.0001058
 5,-0.00027189,0.00006282,-0.00006313,-0.00245127,0.00119340,-0.0054036
 4,-0.00010358,0.00370531,0.00259585,-0.00026149,-0.00379637,0.00310713
 ,0.00487750,-0.00749475,-0.00889416,-0.15147913,0.11498958,0.12869907,
 0.,0.,0.,0.,0.,0.,0.,0.,0.,0.,0.00000001,0.,0.,0.,0.,0.,0.,0.,0.000000
 10,-0.00000017,-0.00000008,0.,-0.00000002,-0.00000001,0.,0.,0.,0.,0.,0
 .,0.00026938,-0.00207302,-0.00060416,0.,0.00000001,0.,0.00000001,0.000
 00001,0.,0.00000002,0.00000004,0.00000002,0.00000146,0.00000062,0.0000
 0024,0.00000012,0.00000006,-0.00000002,0.00000007,0.00000023,-0.000000
 11,0.00000017,-0.00000010,0.00000008,0.00000002,-0.00000005,0.,0.00000
 002,-0.00000026,0.00000017,-0.00001307,0.00000116,-0.00000388,0.000000
 21,-0.00000011,-0.00000002,-0.00150955,0.00082244,0.00076438,0.,0.,0.,
 0.,0.,0.,0.,0.,0.,0.00000001,0.00000002,0.00000003,0.00000006,0.000000
 03,0.00000010,0.00000082,0.00000011,0.00000058,0.00000009,0.00000002,-
 0.00000005,0.00000008,0.00000003,-0.00000010,0.00000005,0.00000012,-0.
 00000016,0.00000001,0.,0.,0.,0.,0.,0.,0.,0.,-0.00000005,-0.00000005,0.
 00000007,-0.00000018,-0.00000005,0.00000020,0.00000049,0.00000087,0.00
 000669,0.00000012,-0.00000001,-0.00000004,0.00000032,0.00000006,-0.000
 00021,0.00000674,0.00000230,-0.00000779,0.00001919,-0.00003277,-0.0000
 0580,-0.00002627,0.00009144,0.00004851,0.00003267,0.00009773,0.0000251
 0,0.00005409,-0.00001307,-0.00002700,0.00003231,0.00000217,0.00000964,
 0.00096490,0.00048201,0.00100337,-0.00001882,-0.00003284,-0.00005999,-
 0.00000535,0.00002788,0.00000728,-0.00000791,0.00000752,0.00000637,-0.
 00002808,0.00005059,0.00002244,-0.00028926,0.00096928,0.00021220,0.001
 17940,0.00007282,0.00003763,0.00043913,-0.00015071,-0.00051820,-0.0009
 0790,0.00025880,-0.00007233,0.16909012,0.,0.00000012,0.,0.00000004,0.0
 0000026,0.00000002,0.,0.00000004,0.,0.00000004,0.00000012,0.,0.0000002
 3,0.00000130,0.00000016,0.00000001,0.00000003,0.,0.00000009,0.00000015
 ,0.,0.,0.00000002,0.,0.00008242,0.00000795,-0.00001508,-0.00000016,0.0
 0000246,0.00000058,0.00000037,0.00000054,0.00000001,0.00127998,0.00139
 627,-0.00026082,0.00000115,0.00000084,0.00000002,-0.00000014,0.0000008
 5,0.00000039,0.00017200,-0.00021440,0.00000961,-0.00000031,0.00000064,
 0.00000037,0.,0.00000023,0.00000013,-0.00000095,0.00000126,0.00000059,
 -0.00000008,0.00000014,0.00000012,-0.00000358,0.00000553,0.00000087,-0
 .00001455,0.00000975,-0.00000224,-0.00011854,0.00079931,-0.00087050,-0
 .00000001,0.00000008,0.00000006,-0.00000003,0.00000007,0.00000006,-0.0
 0354723,-0.00534513,0.00560483,0.00119636,-0.00052955,-0.00213614,0.00
 286270,0.00230055,-0.00177984,0.00000007,0.00000004,0.,0.00000072,0.00
 000037,0.00000025,0.00000076,0.00000037,-0.00000023,-0.00000055,0.0000
 0034,-0.00000014,-0.00000932,0.00000530,-0.00000744,-0.00000624,0.0000
 0059,0.00000088,0.00000003,0.00000002,0.,0.00000003,0.00000002,0.,0.00
 000029,0.00000019,0.00000018,0.00000151,0.00000017,0.00000051,0.000000
 39,0.00000005,-0.00000011,0.00000094,0.00000068,-0.00000062,-0.0000002
 6,0.00000009,-0.00000009,-0.00000017,0.00000016,-0.00000003,-0.0000025
 7,0.00000302,-0.00000369,0.00003057,-0.00001731,0.00002829,-0.00000095
 ,-0.00000008,0.00000015,0.00001939,-0.00001088,-0.00000733,0.00000001,
 0.,0.,0.,0.,0.,0.00000001,0.,0.,0.00000020,0.00000008,0.00000018,0.000
 00030,0.,0.00000026,0.00000082,-0.00000018,0.00000048,0.00000023,-0.00
 000004,-0.00000011,0.00000030,-0.00000003,-0.00000024,0.00000064,0.000
 00028,-0.00000060,-0.00000006,0.00000002,-0.00000002,-0.00000003,0.000
 00002,-0.00000001,-0.00000005,0.00000004,-0.00000001,-0.00000091,0.000
 00108,-0.00000278,-0.00000108,-0.00000042,-0.00000389,-0.00000094,-0.0
 0000618,-0.00000178,-0.00000022,-0.00000021,0.00000007,0.00000008,-0.0
 0000057,-0.00000004,0.00000003,-0.00000463,-0.00000002,0.00012617,-0.0
 0007005,-0.00004042,-0.00014140,0.00017810,-0.00012357,0.00027186,-0.0
 0056118,-0.00018410,-0.00001591,-0.00000850,0.00018128,0.00000043,0.00
 002933,-0.00005314,-0.00006246,-0.00001755,0.00007331,-0.00258911,0.00
 092872,-0.00008441,-0.00034124,-0.00171120,-0.00067570,0.00139306,0.00
 182600,0.00073429,-0.00077783,-0.00069764,-0.00104515,-0.00023050,-0.0
 0038140,-0.00003143,-0.00032838,0.00007649,-0.00002195,0.00011725,-0.0
 0008576,-0.00007410,-0.00004571,0.00001318,-0.00002372,0.00007146,-0.0
 0002738,-0.00001190,0.00001021,-0.00006651,-0.00013165,0.00002896,-0.0
 0020888,0.00013334,-0.01268876,0.01154255,0.00803459,-0.00068409,-0.00
 159729,0.00503621,-0.00030554,-0.00549322,0.00003759,0.01646573,-0.005
 38879,-0.01480519,0.11335864,-0.14423124,-0.08780862,0.,0.00000004,0.,
 0.,0.,0.,0.,0.,0.,0.00000001,0.00000002,0.,0.,0.,0.,0.,0.00000005,0.00
 000003,-0.00000017,0.00000015,0.00000009,-0.00000002,0.00000002,0.0000
 0002,0.,0.00000001,0.,0.,0.,0.,-0.00263743,0.00213458,-0.00258675,0.00
 000001,0.,0.,0.00000001,0.,0.,0.00000004,0.00000003,0.00000002,0.00000
 062,-0.00000003,0.00000009,0.00000006,0.,0.,0.00000023,0.00000027,-0.0
 0000018,-0.00000010,0.00000001,-0.00000004,-0.00000005,0.00000006,0.,-
 0.00000026,0.00000041,-0.00000034,0.00000116,-0.00000587,0.00000061,-0
 .00000011,0.,0.,0.00082244,-0.00027946,-0.00038285,0.,0.,0.,0.,0.,0.,0
 .,0.,0.,0.00000002,0.00000001,0.00000002,0.00000003,-0.00000001,0.0000
 0004,0.00000011,-0.00000016,0.00000006,0.00000002,-0.00000001,0.,0.000
 00003,-0.00000002,-0.00000003,0.00000012,0.00000007,-0.00000017,0.,0.,
 0.,0.,0.,0.,0.,0.,0.,-0.00000005,0.00000011,-0.00000025,-0.00000005,-0
 .00000013,-0.00000034,0.00000087,-0.00000246,0.00000182,-0.00000001,-0
 .00000002,0.,0.00000006,-0.00000005,-0.00000003,0.00000230,-0.00000190
 ,-0.00000194,0.00000349,-0.00000144,-0.00001050,0.00001063,0.00001156,
 0.00002997,0.00002764,0.00007522,0.00002872,0.00000698,0.00000083,0.00
 000689,-0.00000209,0.00000693,0.00000486,-0.00037864,0.00053985,0.0000
 9874,0.00000301,0.00002617,0.00002315,0.00000757,-0.00001283,-0.000007
 64,0.00000628,-0.00000244,-0.00000830,0.00003737,-0.00001006,-0.000017
 21,-0.00024427,0.00204727,-0.00014077,0.00109968,0.00084777,0.00083161
 ,-0.00033746,0.00012344,-0.00129498,-0.00110147,0.00030654,0.00008344,
 -0.11290525,0.14173578,0.,0.,-0.00000002,0.,0.00000002,-0.00000004,0.,
 0.,0.,0.,0.,-0.00000002,0.00000002,0.00000016,-0.00000018,0.,0.,0.,0.,
 0.,-0.00000003,0.,0.,0.,0.00004729,0.00000795,0.00001674,-0.00000003,0
 .00000058,-0.00000026,0.,0.00000001,-0.00000011,0.00038492,0.00043093,
 -0.00028996,0.00000002,0.00000002,-0.00000029,-0.00000005,0.00000039,0
 .,0.00007111,-0.00007532,0.00003508,-0.00000015,0.00000037,0.00000004,
 0.,0.00000013,0.00000002,-0.00000036,0.00000059,-0.00000008,-0.0000000
 6,0.00000012,0.00000004,-0.00000046,0.00000087,-0.00000106,0.00000232,
 -0.00000224,-0.00000396,-0.00012182,0.00036017,-0.00056361,0.,0.000000
 06,0.00000002,-0.00000002,0.00000006,0.00000003,-0.00090528,-0.0006153
 0,0.00314884,0.00011603,-0.00049533,-0.00100836,0.00068590,0.00055344,
 -0.00296705,0.,0.,-0.00000002,0.00000032,0.00000025,-0.00000009,-0.000
 00029,-0.00000023,-0.00000012,0.00000016,-0.00000014,-0.00000010,0.000
 00723,-0.00000744,0.00000148,-0.00000184,0.00000088,-0.00000212,0.,0.,
 0.,0.,0.,0.,0.00000019,0.00000018,0.00000003,0.00000107,0.00000051,-0.
 00000019,-0.00000023,-0.00000011,-0.00000007,-0.00000060,-0.00000062,0
 .00000010,0.00000014,-0.00000009,-0.00000003,0.00000003,-0.00000003,-0
 .00000004,0.00000224,-0.00000369,0.00000200,-0.00005932,0.00002829,-0.
 00005763,-0.00000045,0.00000015,-0.00000034,0.00002366,-0.00000733,-0.
 00001382,0.,0.,0.,0.,0.,0.,0.,0.,0.,0.00000023,0.00000018,0.00000013,0
 .00000052,0.00000026,0.00000031,0.00000143,0.00000048,0.00000038,-0.00
 000034,-0.00000011,0.00000005,-0.00000054,-0.00000024,0.00000026,-0.00
 000073,-0.00000060,0.00000043,0.00000003,-0.00000002,0.,0.00000001,-0.
 00000001,0.,0.00000001,-0.00000001,-0.00000001,0.00000132,-0.00000278,
 0.00000318,0.00000299,-0.00000389,0.00000893,0.00000487,-0.00000178,0.
 00000265,-0.00000050,0.00000007,-0.00000008,-0.00000166,-0.00000004,0.
 00000019,-0.00001065,-0.00000002,0.00000132,0.00042517,-0.00015279,-0.
 00026079,-0.00046664,0.00046835,-0.00021785,0.00084759,-0.00137905,-0.
 00065138,0.00006312,0.00000476,0.00059465,-0.00005820,0.00004487,-0.00
 012313,-0.00014312,-0.00011354,0.00025266,-0.01087870,0.00134346,-0.00
 198090,-0.00084460,0.00034542,-0.00057929,-0.00222279,-0.00019563,-0.0
 0179969,0.00053749,-0.00028280,0.00049577,0.00059254,-0.00004940,0.000
 24114,-0.00009199,-0.00000245,-0.00015414,-0.00001735,0.00009773,0.000
 03362,0.00001846,-0.00001408,0.00000951,-0.00000818,0.00006174,-0.0000
 0134,0.00022377,-0.00012387,0.00001037,-0.00015224,0.00002969,0.000356
 34,0.01879263,-0.01913028,-0.02195520,0.00135025,0.00869841,-0.0012759
 6,0.00076949,-0.00055090,0.00454093,-0.00318458,-0.00368091,0.00002670
 ,0.11260657,-0.07699830,-0.12386044,0.,0.,0.,0.,0.,0.,0.,0.,0.,0.,0.,0
 .,0.,0.,0.,0.,0.00000003,0.,-0.00000008,0.00000009,0.,-0.00000001,0.00
 000002,0.,0.,0.,0.,0.,0.,0.,-0.00165415,-0.00112877,-0.00142073,0.,0.,
 0.,0.,0.,0.,0.00000002,0.00000002,0.,0.00000024,0.00000009,-0.00000022
 ,-0.00000002,0.,-0.00000002,-0.00000011,-0.00000018,0.00000002,0.00000
 008,-0.00000004,0.,0.,0.,-0.00000001,0.00000017,-0.00000034,0.00000011
 ,-0.00000388,0.00000061,-0.00000773,-0.00000002,0.,-0.00000004,0.00076
 438,-0.00038285,-0.00022335,0.,0.,0.,0.,0.,0.,0.,0.,0.,0.00000003,0.00
 000002,0.00000002,0.00000010,0.00000004,0.00000008,0.00000058,0.000000
 06,0.00000016,-0.00000005,0.,0.,-0.00000010,-0.00000003,0.00000007,-0.
 00000016,-0.00000017,0.00000016,0.,0.,0.,0.,0.,0.,0.,0.,0.,0.00000007,
 -0.00000025,0.00000028,0.00000020,-0.00000034,0.00000134,0.00000669,0.
 00000182,0.00001133,-0.00000004,0.,0.,-0.00000021,-0.00000003,0.000000
 05,-0.00000779,-0.00000194,0.00000411,0.00000639,-0.00000447,-0.000004
 50,-0.00003325,0.00006748,0.00006903,0.00001393,0.00003902,-0.00000588
 ,0.00002606,-0.00000337,-0.00000497,0.00001492,0.00000407,0.00000837,0
 .00082246,0.00023288,0.00059538,0.00000249,0.00000012,0.00000463,-0.00
 000058,0.00001099,0.00001601,0.00000169,0.00002488,0.00001915,-0.00003
 058,0.00000119,0.00000392,-0.00058140,0.00042846,-0.00024197,-0.000271
 81,-0.00100569,-0.00088842,0.00054496,-0.00014754,0.00054417,-0.000799
 32,-0.00039735,-0.00031620,-0.11722927,0.09367132,0.14982153\\-0.00002
 303,0.00000641,0.00000625,0.00003843,-0.00001682,0.00000464,0.00000741
 ,0.00000314,0.00000044,-0.00004050,0.00002411,0.00000700,0.00002612,-0
 .00000700,0.00000519,0.00001380,0.00000692,-0.00000339,0.00001423,-0.0
 0000561,0.00000744,-0.00001547,0.00000812,0.00000161,-0.00005459,0.000
 07758,-0.00000574,-0.00000189,0.00000059,0.00000443,0.00000458,0.00000
 805,0.00000843,-0.00000387,-0.00000375,-0.00002105,0.00000169,0.000002
 63,0.00000410,0.00001941,-0.00001088,-0.00003910,0.00002449,0.00007174
 ,0.00005815,-0.00002512,0.00000639,0.00003367,-0.00001593,0.00000537,0
 .00002978,0.00001524,-0.00000122,-0.00001783,0.00000745,0.00000168,0.0
 0001083,0.00001577,0.00000138,-0.00000071,0.00000013,-0.00000019,0.000
 00596,0.00000608,-0.00001105,-0.00002538,0.00001179,0.00001184,0.00001
 191,-0.00001267,-0.00000732,0.00000024,-0.00001043,-0.00000235,-0.0000
 2713,0.00002614,-0.00002081,-0.00001648,0.00002320,0.00001769,-0.00001
 298,-0.00000362,-0.00000118,0.00000205,-0.00000432,0.00000039,0.000000
 70,-0.00000576,0.00000100,0.00000479,0.00000058,0.00000290,0.00000671,
 0.00000024,0.00000359,0.00001114,0.00000158,0.00000073,0.00000748,-0.0
 0000042,-0.00000256,0.00000148,0.00000074,-0.00000353,0.00000022,-0.00
 000161,-0.00000306,0.00000153,0.00000019,-0.00000216,0.00000003,-0.000
 00129,0.00000148,0.00000099,-0.00000374,-0.00000208,0.00000319,0.00000
 199,-0.00000021,0.00000467,0.00000007,0.00000071,0.00000307,0.00000250
 ,0.00000134,0.00000508,0.00000029,0.00000167,0.00000339,0.00000325,0.0
 0000155,0.00000384,0.00000223,0.00000085,0.00000552,-0.00000042,-0.000
 00158,0.00000117,0.00000171,-0.00000162,-0.00000003,0.00000112,-0.0000
 0330,-0.00000014,-0.00000008,-0.00000238,0.00000109,0.00000343,-0.0000
 0210,0.00000098,0.00000125,-0.00000204,0.00000046,-0.00000103,0.000001
 86,-0.00000096,-0.00000235,0.00000073,0.00000088,-0.00000386,-0.000000
 53,0.00000315,0.00000080,0.00000037,0.00000318,0.00000210,0.00000073,0
 .00000164,0.00000052,0.00000106,0.00000168,0.00000123,0.00000056,0.000
 00412,0.00000133,0.00000124,0.00000280,0.00000139,0.00000097,0.0000048
 6,0.00000149,0.00000149,0.00000372,0.00000103,0.00000122,0.00000364,-0
 .00000015,-0.00000043,0.00000530,0.00000321,-0.00000414,0.00000822,0.0
 0000089,-0.00000283,0.00000300,0.00001074,-0.00000421,0.00000167,0.000
 00566,-0.00001050,0.00000065,0.00000568,-0.00001123,0.00000437,0.00000
 476,-0.00000820,0.00000982,-0.00000883,-0.00000324,-0.00001394,0.00002
 798,0.00001707,0.00000271,-0.00000849,0.00000452,-0.00001031,-0.000000
 22,0.00000005,-0.00000427,-0.00000284,0.00000758,-0.00000193,0.0000036
 8,0.00001021,-0.00001220,-0.00000819,0.00000878,-0.00001170,-0.0000078
 8,0.00001256,-0.00001946,-0.00000706,0.00001034,-0.00002327,-0.0000049
 4,0.00000627,-0.00002162,-0.00000237,0.00000601,-0.00001821,0.00003164
 ,-0.00001667,-0.00001494,0.00000934,-0.00001671,-0.00000227,0.00000700
 ,-0.00001759,0.00000186,0.00000166,-0.00001627,-0.00000597,0.00000591,
 -0.00001231,-0.00000128,0.00000668,-0.00000529,0.00000284,-0.00000779,
 -0.00000745,0.00000791,-0.00000376,0.00001152,-0.00000003,-0.00001527,
 -0.00000446,0.00000198,-0.00000946,0.00000324,0.00000189,0.00000628,0.
 00000347,0.00000978,-0.00002717,-0.00000372,0.00001626,-0.00000453,-0.
 00001332,-0.00000609,-0.00000556,0.00000691,0.00000817,-0.00000836,-0.
 00000160,-0.00000220,-0.00004353,-0.00004614,-0.00001790,-0.00000096,0
 .00000181,0.00000277,0.00000175,-0.00000015,0.00000153,-0.00000707,-0.
 00000243,0.00000065,-0.00000372,-0.00000237,0.00000038,0.00000053,-0.0
 0000033,-0.00000161,-0.00000398,-0.00000297,0.00000725,-0.00000078,-0.
 00000120,0.00000683,-0.00000238,0.00000049,0.00000588,0.00000092,0.000
 00038,0.00000279,-0.00000599,0.00000095,-0.00000025,0.00000311,0.00000
 139,0.00000168,0.00000229,-0.00000133,0.00000675,-0.00000103,0.0000009
 4,0.00000210,0.00000371,-0.00000228,-0.00000148,0.00000200,-0.00000088
 ,0.,-0.00000038,-0.00000200,0.00000076,0.00001092,-0.00000174,0.000001
 98,-0.00000159,-0.00000189,0.00000027,0.00000080,0.00000318,-0.0000046
 2,-0.00000245,0.00000334,-0.00000169,-0.00000482,0.,0.00000466,0.00000
 107,-0.00000024,0.00000242,0.00000539,0.00000135,-0.00000181,0.0000014
 4,0.00000110,0.00000268,-0.00000192,0.00000094,0.00000186,-0.00000126,
 0.00000038,0.00000066,0.00000170,0.00000062,0.00000353,0.00000147,0.00
 000227,0.00000178,-0.00000061,0.00000244,0.00000303,-0.00000112,-0.000
 00239,0.00000384,0.00000186,-0.00000122,0.00001251,0.00000097,0.000000
 45,0.00000312,0.00000610,-0.00001279,-0.00000422,0.00000757,-0.0000143
 7,0.00000495,0.00000555,-0.00000844,0.00001338,0.00000503,-0.00000725,
 -0.00001043,-0.00000658,0.00001230,-0.00001145,-0.00000961,0.00001576,
 -0.00002051,-0.00000835,0.00001168,-0.00002739,-0.00000448,0.00000454,
 -0.00002454,-0.00002892,-0.00000891,-0.00000594,0.00000976,-0.00002209
 ,-0.00000461,0.00000908,-0.00001777,0.00000409,0.00000381,-0.00000874,
 -0.00000003,0.00000150,-0.00000948,-0.00001077\\\@


 COLLEGE PROFESSOR: SOMEONE WHO TALKS IN OTHER PEOPLE'S SLEEP.
 Job cpu time:       0 days  4 hours 17 minutes 12.8 seconds.
 File lengths (MBytes):  RWF=   1335 Int=      0 D2E=      0 Chk=     50 Scr=      1
 Normal termination of Gaussian 09 at Tue Nov 22 14:16:27 2016.
