 Entering Gaussian System, Link 0=/usr/local/shared/gaussian/em64t/09-D01/g09/g09
 Initial command:
 /usr/local/shared/gaussian/em64t/09-D01/g09/l1.exe "/scratch/ab2144/Toru-SiPh3-Type-I-E-2-chkp4-unrestrained/Gau-12876.inp" -scrdir="/scratch/ab2144/Toru-SiPh3-Type-I-E-2-chkp4-unrestrained/"
 Entering Link 1 = /usr/local/shared/gaussian/em64t/09-D01/g09/l1.exe PID=     12877.
  
 Copyright (c) 1988,1990,1992,1993,1995,1998,2003,2009,2013,
            Gaussian, Inc.  All Rights Reserved.
  
 This is part of the Gaussian(R) 09 program.  It is based on
 the Gaussian(R) 03 system (copyright 2003, Gaussian, Inc.),
 the Gaussian(R) 98 system (copyright 1998, Gaussian, Inc.),
 the Gaussian(R) 94 system (copyright 1995, Gaussian, Inc.),
 the Gaussian 92(TM) system (copyright 1992, Gaussian, Inc.),
 the Gaussian 90(TM) system (copyright 1990, Gaussian, Inc.),
 the Gaussian 88(TM) system (copyright 1988, Gaussian, Inc.),
 the Gaussian 86(TM) system (copyright 1986, Carnegie Mellon
 University), and the Gaussian 82(TM) system (copyright 1983,
 Carnegie Mellon University). Gaussian is a federally registered
 trademark of Gaussian, Inc.
  
 This software contains proprietary and confidential information,
 including trade secrets, belonging to Gaussian, Inc.
  
 This software is provided under written license and may be
 used, copied, transmitted, or stored only in accord with that
 written license.
  
 The following legend is applicable only to US Government
 contracts under FAR:
  
                    RESTRICTED RIGHTS LEGEND
  
 Use, reproduction and disclosure by the US Government is
 subject to restrictions as set forth in subparagraphs (a)
 and (c) of the Commercial Computer Software - Restricted
 Rights clause in FAR 52.227-19.
  
 Gaussian, Inc.
 340 Quinnipiac St., Bldg. 40, Wallingford CT 06492
  
  
 ---------------------------------------------------------------
 Warning -- This program may not be used in any manner that
 competes with the business of Gaussian, Inc. or will provide
 assistance to any competitor of Gaussian, Inc.  The licensee
 of this program is prohibited from giving any competitor of
 Gaussian, Inc. access to this program.  By using this program,
 the user acknowledges that Gaussian, Inc. is engaged in the
 business of creating and licensing software in the field of
 computational chemistry and represents and warrants to the
 licensee that it is not a competitor of Gaussian, Inc. and that
 it will not use this program in any manner prohibited above.
 ---------------------------------------------------------------
  

 Cite this work as:
 Gaussian 09, Revision D.01,
 M. J. Frisch, G. W. Trucks, H. B. Schlegel, G. E. Scuseria, 
 M. A. Robb, J. R. Cheeseman, G. Scalmani, V. Barone, B. Mennucci, 
 G. A. Petersson, H. Nakatsuji, M. Caricato, X. Li, H. P. Hratchian, 
 A. F. Izmaylov, J. Bloino, G. Zheng, J. L. Sonnenberg, M. Hada, 
 M. Ehara, K. Toyota, R. Fukuda, J. Hasegawa, M. Ishida, T. Nakajima, 
 Y. Honda, O. Kitao, H. Nakai, T. Vreven, J. A. Montgomery, Jr., 
 J. E. Peralta, F. Ogliaro, M. Bearpark, J. J. Heyd, E. Brothers, 
 K. N. Kudin, V. N. Staroverov, T. Keith, R. Kobayashi, J. Normand, 
 K. Raghavachari, A. Rendell, J. C. Burant, S. S. Iyengar, J. Tomasi, 
 M. Cossi, N. Rega, J. M. Millam, M. Klene, J. E. Knox, J. B. Cross, 
 V. Bakken, C. Adamo, J. Jaramillo, R. Gomperts, R. E. Stratmann, 
 O. Yazyev, A. J. Austin, R. Cammi, C. Pomelli, J. W. Ochterski, 
 R. L. Martin, K. Morokuma, V. G. Zakrzewski, G. A. Voth, 
 P. Salvador, J. J. Dannenberg, S. Dapprich, A. D. Daniels, 
 O. Farkas, J. B. Foresman, J. V. Ortiz, J. Cioslowski, 
 and D. J. Fox, Gaussian, Inc., Wallingford CT, 2013.
 
 ******************************************
 Gaussian 09:  EM64L-G09RevD.01 24-Apr-2013
                27-Oct-2016 
 ******************************************
 %nprocshared=4
 Will use up to    4 processors via shared memory.
 %mem=812MB
 %chk=Toru-SiPh3-Type-I-E-2-chkp4-unrestrained.chk
 ----------------------------------------------------------------------
 # opt=(calcfc,ts,noeigen) freq=noraman oniom(b3lyp/6-31g(d,p):uff) geo
 m=connectivity
 ----------------------------------------------------------------------
 1/5=1,10=4,11=1,14=-1,18=1000020,38=1,52=2,56=1,57=2,61=3,64=2,115=4/1,3;
 2/9=110,12=2,17=6,18=5,40=1/2;
 1/5=1,10=4,11=1,14=-1,18=1000020,38=1,52=2,53=3172,61=3,64=2,115=4/20;
 3/5=30,11=9,16=1,25=1,30=1,41=10200000,43=2,71=2,140=1/1;
 4/20=10,22=2,24=3,112=4/2;
 7/7=1,25=1,33=-1,44=-1,88=4/16;
 1/5=1,10=4,11=1,14=-1,18=1000020,26=1,52=2,53=2032,61=3,115=4/20;
 3/5=1,6=6,7=101,11=2,16=1,25=1,30=1,71=2,74=-5,140=1/1,2,3;
 4/112=4/1;
 5/5=2,38=5/2;
 8/6=4,10=90,11=11,47=4/1;
 11/6=1,8=1,9=11,15=111,16=1,39=4/1,2,10;
 10/6=1,13=1,48=4/2;
 6/7=2,8=2,9=2,10=2,28=1/1;
 7/7=1,10=1,18=20,25=1,33=-1,88=4/1,2,3,16;
 1/5=1,10=4,11=1,14=-1,18=1000020,52=2,53=1022,61=3,64=2,115=4/20;
 3/5=30,11=9,16=1,25=1,30=1,41=10200000,43=2,71=2,140=1/1;
 4/20=10,22=2,24=3,112=4/2;
 7/7=1,25=1,33=-1,44=-1,88=4/16;
 1/5=1,10=4,11=1,14=-1,18=1000020,52=2,53=3016,61=3,64=2,115=4/20;
 7/9=1,25=1,44=-1,88=4/16;
 1/5=1,10=4,11=1,14=-1,18=1000020,52=2,61=3,64=2,115=4/3(2);
 2/9=110/2;
 99//99;
 2/9=110/2;
 1/5=1,11=1,14=-1,18=1000020,52=2,53=3173,61=3,64=2,115=4/20;
 3/5=30,11=9,16=1,25=1,30=1,41=10200000,43=2,71=1/1;
 4/16=2,20=10,22=1,24=3,112=4/2;
 7/7=1,33=-1,44=-1,88=4/16;
 1/5=1,11=1,14=-1,18=1000020,26=1,52=2,53=2033,61=3,115=4/20;
 3/5=1,6=6,7=101,11=2,16=1,25=1,30=1,71=1,74=-5/1,2,3;
 4/5=5,16=3,69=1,112=4/1;
 5/5=2,38=5/2;
 7/7=1,33=-1,88=4/1,2,3,16;
 1/5=1,11=1,14=-1,18=1000020,52=2,53=1023,61=3,64=2,115=4/20;
 3/5=30,11=9,16=1,25=1,30=1,41=10200000,43=2,71=1/1;
 4/16=2,20=10,22=1,24=3,112=4/2;
 7/7=1,33=-1,44=-1,88=4/16;
 1/5=1,11=1,14=-1,18=1000020,52=2,53=3015,61=3,64=2,115=4/20;
 7/9=1,44=-1,88=4/16;
 1/5=1,11=1,14=-1,18=1000020,52=2,61=3,64=2,115=4/3(-16);
 2/9=110/2;
 99//99;
 -------------------
 Title Card Required
 -------------------
 Symbolic Z-matrix:
 Charge =  0 Multiplicity = 1 for low   level calculation on real  system.
 Charge =  0 Multiplicity = 1 for high  level calculation on model system.
 Charge =  0 Multiplicity = 1 for low   level calculation on model system.
 C-C_R                0    -0.45353  -5.39204  -0.42563  L 
 C-C_R                0    -1.3658   -4.21915  -0.30642  L 
 C-C_R                0    -0.92826  -6.58476  -0.80261  L 
 C-C_R                0    -2.66584  -4.36978  -0.63844  L 
 C-C_R                0    -0.86838  -2.87823   0.1323   L 
 C-C_R                0    -3.18307  -5.6965   -1.0481   L 
 C-C_R                0    -3.56978  -3.20742  -0.63142  L 
 C-C_R                0    -2.35917  -6.74676  -1.11917  L 
 C-C_R                0    -1.6726   -1.79137   0.01073  L    H-H_     12    0.        0. 
 C-C_R                0     0.52361  -2.72559   0.6275   L 
 C-C_R                0    -3.10601  -1.97823  -0.36315  L 
 O-O_R                0    -1.24926  -0.55206   0.43648  H 
 Si-Si3               0    -4.27336  -0.52135  -0.42834  L 
 C-C_R                0     1.01022  -3.40868   1.68871  L 
 C-C_R                0     1.4275   -1.85031  -0.15696  L    H-H_     22    0.        0. 
 C-C_R                0     2.46754  -3.37049   1.97656  L 
 C-C_R                0     0.15436  -4.21882   2.59028  L 
 C-C_R                0     3.29409  -2.67085   1.18711  L 
 C-C_R                0     2.9838   -4.15265   3.11701  L 
 C-C_R                0     2.7597   -1.89147   0.04796  L 
 Si-Si3               0     3.95747  -0.96946  -1.04257  L 
 O-O_R                0     0.87658  -1.01581  -1.09477  H 
 C-C_R                0     0.69385  -4.90028   3.60788  L 
 C-C_R                0     2.14845  -4.87146   3.8753   L 
 P-P_3+5              0    -0.01421   0.18287  -0.40787  H 
 O-O_2                0    -0.54842   1.029    -1.5326   H 
 O-O_2                0     0.80354   0.87732   0.66309  H 
 C-C_R                0    -3.89216   0.5592   -1.89229  L 
 C-C_R                0    -6.03035  -1.07305  -0.69661  L 
 C-C_R                0    -4.13404   0.35476   1.20528  L 
 C-C_R                0     4.29257   0.71461  -0.31999  L 
 C-C_R                0     5.53579  -1.95757  -1.13781  L 
 C-C_R                0     3.21602  -0.8251   -2.74812  L 
 C-C_R                0    -2.98739   0.18156  -2.81099  L 
 C-C_R                0    -4.68212   1.79399  -2.11638  L 
 C-C_R                0    -6.97477  -0.8996    0.2439   L 
 C-C_R                0    -6.40377  -1.67209  -2.00139  L 
 C-C_R                0    -3.97364   1.68521   1.2858   L 
 C-C_R                0    -4.23773  -0.44377   2.45083  L 
 C-C_R                0     4.969     1.63498  -1.02846  L 
 C-C_R                0     3.83542   1.04547   1.0516   L 
 C-C_R                0     6.73868  -1.37576  -0.98852  L 
 C-C_R                0     5.46199  -3.42636  -1.33886  L 
 C-C_R                0     3.107    -1.90254  -3.54387  L 
 C-C_R                0     2.64039   0.46458  -3.1977   L 
 C-C_R                0    -2.72494   1.0316   -3.99093  L 
 C-C_R                0    -3.41657   2.1628   -4.16934  L 
 C-C_R                0    -4.44893   2.55822  -3.19035  L 
 C-C_R                0    -8.36625  -1.32692  -0.01267  L 
 C-C_R                0    -8.69431  -1.87667  -1.18777  L 
 C-C_R                0    -7.66537  -2.05519  -2.23166  L 
 C-C_R                0    -3.95958   2.35169   2.60425  L 
 C-C_R                0    -4.06463   1.62826   3.72495  L 
 C-C_R                0    -4.20169   0.1605    3.64445  L 
 C-C_R                0     5.23931   2.96856  -0.45258  L 
 C-C_R                0     4.80968   3.26653   0.77869  L 
 C-C_R                0     4.07794   2.25675   1.56841  L 
 C-C_R                0     7.97266  -2.1865   -1.05704  L 
 C-C_R                0     7.8983   -3.50751  -1.25443  L 
 C-C_R                0     6.58111  -4.15826  -1.39633  L 
 C-C_R                0     2.45727  -1.7908   -4.8669   L 
 C-C_R                0     1.95147  -0.61946  -5.26954  L 
 C-C_R                0     2.04053   0.56205  -4.38973  L 
 C-C_R                0     2.18761   6.59852  -1.5657   H 
 C-C_R                0     1.42639   6.15848  -0.48598  H 
 C-C_R                0     1.28712   4.78756  -0.219    H 
 C-C_R                0     1.89785   3.85566  -1.07243  H 
 C-C_R                0     2.64931   4.30158  -2.1582   H 
 C-C_R                0     2.80153   5.6678   -2.40389  H 
 C-C_R                0     0.50769   4.39401   0.97547  H 
 N-N_R                0     0.83994   3.25358   1.66348  H 
 S-S_3+4              0     0.30723   3.16687   3.29062  H 
 O-O_2                0     1.12559   4.07673   4.08695  H 
 O-O_2                0    -1.15861   3.32843   3.30671  H 
 C-C_R                0     0.66556   1.43356   3.69731  H 
 C-C_R                0    -0.34688   0.49312   3.52776  H 
 C-C_R                0    -0.05461  -0.81385   3.90881  H 
 C-C_R                0     1.21035  -1.09831   4.41993  H 
 C-C_R                0     2.1477   -0.06807   4.51721  H 
 N-N_R                0     1.87967   1.19404   4.16579  H 
 N-N_R                0    -1.31942   3.48572  -0.94452  H 
 C-C_R                0    -1.57135   4.34919  -1.92388  H 
 C-C_R                0    -1.94381   5.60249  -1.37898  H 
 C-C_R                0    -1.89621   5.45971  -0.00598  H 
 C-C_R                0    -1.41205   4.14424   0.29137  H 
 H-H_                 0     0.60511  -5.29482  -0.22716  L 
 H-H_                 0    -0.2606   -7.43244  -0.88814  L 
 H-H_                 0    -4.23031  -5.81983  -1.29497  L 
 H-H_                 0    -4.60935  -3.36854  -0.87653  L 
 H-H_                 0    -2.73738  -7.715    -1.42074  L 
 H-H_                 0    -0.91849  -4.25474   2.45165  L 
 H-H_                 0     4.35798  -2.65843   1.39171  L 
 H-H_                 0     4.04284  -4.15157   3.34587  L 
 H-H_                 0     0.05292  -5.48116   4.25857  L 
 H-H_                 0     2.54046  -5.44005   4.70874  L 
 H-H_                 0     0.89211   2.29468   1.17421  H 
 H-H_                 0    -2.43101  -0.73999  -2.70323  L 
 H-H_                 0    -5.45729   2.07952  -1.41646  L 
 H-H_                 0    -6.74267  -0.44504   1.19644  L 
 H-H_                 0    -5.65572  -1.80342  -2.77349  L 
 H-H_                 0    -3.8729    2.29362   0.40042  L 
 H-H_                 0    -4.34616  -1.52004   2.39946  L 
 H-H_                 0     5.31933   1.41562  -2.02943  L 
 H-H_                 0     3.30702   0.31228   1.64582  L 
 H-H_                 0     6.83314  -0.31378  -0.81858  L 
 H-H_                 0     4.50207  -3.92029  -1.41539  L 
 H-H_                 0     3.47629  -2.86753  -3.23168  L 
 H-H_                 0     2.66463   1.3229   -2.54834  L 
 H-H_                 0    -1.97047   0.73669  -4.70885  L 
 H-H_                 0    -3.22458   2.78744  -5.032    L 
 H-H_                 0    -5.02217   3.4624   -3.34869  L 
 H-H_                 0    -9.11974  -1.19161   0.75243  L 
 H-H_                 0    -9.71335  -2.18847  -1.37684  L 
 H-H_                 0    -7.93481  -2.49413  -3.18356  L 
 H-H_                 0    -3.86402   3.42831   2.66024  L 
 H-H_                 0    -4.04773   2.11608   4.69082  L 
 H-H_                 0    -4.27718  -0.42392   4.55217  L 
 H-H_                 0     5.7746    3.70741  -1.03465  L 
 H-H_                 0     4.99708   4.24638   1.19814  L 
 H-H_                 0     3.74218   2.5       2.5674   L 
 H-H_                 0     8.93712  -1.70784  -0.94651  L 
 H-H_                 0     8.80133  -4.10214  -1.30342  L 
 H-H_                 0     6.52282  -5.22996  -1.53608  L 
 H-H_                 0     2.38567  -2.66139  -5.50591  L 
 H-H_                 0     1.46949  -0.53753  -6.23511  L 
 H-H_                 0     1.60729   1.50276  -4.70447  L 
 H-H_                 0     2.30215   7.66246  -1.74897  H 
 H-H_                 0     0.94872   6.88187   0.16878  H 
 H-H_                 0     1.78861   2.79445  -0.87583  H 
 H-H_                 0     3.13059   3.5864   -2.81605  H 
 H-H_                 0     3.39699   6.00359  -3.24765  H 
 H-H_                 0     0.28111   5.23018   1.6331   H 
 H-H_                 0    -1.30117   0.76932   3.1032   H 
 H-H_                 0    -0.80357  -1.59179   3.80176  H 
 H-H_                 0     1.4736   -2.10027   4.74037  H 
 H-H_                 0     3.14887  -0.25861   4.89561  H 
 H-H_                 0    -1.01875   2.47808  -1.11708  H 
 H-H_                 0    -1.47033   4.05625  -2.96019  H 
 H-H_                 0    -2.2054    6.48318  -1.94769  H 
 H-H_                 0    -2.12754   6.20805   0.74048  H 
 H-H_                 0    -1.69872   3.58041   1.17019  H 
 
 Add virtual bond connecting atoms H137       and N81        Dist= 2.01D+00.
 Add virtual bond connecting atoms H96        and N71        Dist= 2.04D+00.
 Add virtual bond connecting atoms H96        and O27        Dist= 2.85D+00.
 Add virtual bond connecting atoms H137       and O26        Dist= 2.98D+00.
 I=   25 IAn= 15 Valence= 6.
          JB=  1 J=   12 IAn=  8 IBT= 1 Dist= 1.67D+00
          JB=  2 J=   22 IAn=  8 IBT= 1 Dist= 1.64D+00
          JB=  3 J=   26 IAn=  8 IBT= 2 Dist= 1.51D+00
          JB=  4 J=   27 IAn=  8 IBT= 2 Dist= 1.52D+00
 I=   72 IAn= 16 Valence= 6.
          JB=  1 J=   71 IAn=  7 IBT= 1 Dist= 1.71D+00
          JB=  2 J=   73 IAn=  8 IBT= 2 Dist= 1.46D+00
          JB=  3 J=   74 IAn=  8 IBT= 2 Dist= 1.47D+00
          JB=  4 J=   75 IAn=  6 IBT= 1 Dist= 1.82D+00
 I=   83 IAn=  6 Valence= 5.
          JB=  1 J=   82 IAn=  6 IBT=12 Dist= 1.42D+00
          JB=  2 J=   84 IAn=  6 IBT= 2 Dist= 1.38D+00
          JB=  3 J=  139 IAn=  1 IBT= 1 Dist= 1.08D+00
 I=   84 IAn=  6 Valence= 5.
          JB=  1 J=   83 IAn=  6 IBT= 2 Dist= 1.38D+00
          JB=  2 J=   85 IAn=  6 IBT=12 Dist= 1.43D+00
          JB=  3 J=  140 IAn=  1 IBT= 1 Dist= 1.08D+00
 Include all MM classes

 MM sanity checks:
 All charges sum to:                0.00000000
 Charges of atoms sum to:           0.00000000
 Layer 1 (S) has     45 atoms and charge   0.00000000 sum=   0.00000000
 Layer 2 (R) adds    96 atoms and charge   0.00000000 sum=   0.00000000
 MMInit generated parameter data with length LenPar=       22202.

 GradGradGradGradGradGradGradGradGradGradGradGradGradGradGradGradGradGrad
 Berny optimization.
 Initialization pass.
                           ----------------------------
                           !    Initial Parameters    !
                           ! (Angstroms and Degrees)  !
 --------------------------                            --------------------------
 ! Name  Definition              Value          Derivative Info.                !
 --------------------------------------------------------------------------------
 ! R1    R(9,12)                 1.3771         calculate D2E/DX2 analytically  !
 ! R2    R(12,25)                1.6669         calculate D2E/DX2 analytically  !
 ! R3    R(15,22)                1.3709         calculate D2E/DX2 analytically  !
 ! R4    R(22,25)                1.6438         calculate D2E/DX2 analytically  !
 ! R5    R(25,26)                1.5054         calculate D2E/DX2 analytically  !
 ! R6    R(25,27)                1.5159         calculate D2E/DX2 analytically  !
 ! R7    R(26,137)               1.5792         calculate D2E/DX2 analytically  !
 ! R8    R(27,96)                1.5093         calculate D2E/DX2 analytically  !
 ! R9    R(64,65)                1.3924         calculate D2E/DX2 analytically  !
 ! R10   R(64,69)                1.3949         calculate D2E/DX2 analytically  !
 ! R11   R(64,127)               1.0857         calculate D2E/DX2 analytically  !
 ! R12   R(65,66)                1.4036         calculate D2E/DX2 analytically  !
 ! R13   R(65,128)               1.0864         calculate D2E/DX2 analytically  !
 ! R14   R(66,67)                1.4035         calculate D2E/DX2 analytically  !
 ! R15   R(66,70)                1.4796         calculate D2E/DX2 analytically  !
 ! R16   R(67,68)                1.3937         calculate D2E/DX2 analytically  !
 ! R17   R(67,129)               1.0848         calculate D2E/DX2 analytically  !
 ! R18   R(68,69)                1.3965         calculate D2E/DX2 analytically  !
 ! R19   R(68,130)               1.0844         calculate D2E/DX2 analytically  !
 ! R20   R(69,131)               1.0859         calculate D2E/DX2 analytically  !
 ! R21   R(70,71)                1.3727         calculate D2E/DX2 analytically  !
 ! R22   R(70,132)               1.0876         calculate D2E/DX2 analytically  !
 ! R23   R(71,72)                1.7143         calculate D2E/DX2 analytically  !
 ! R24   R(71,96)                1.0778         calculate D2E/DX2 analytically  !
 ! R25   R(72,73)                1.46           calculate D2E/DX2 analytically  !
 ! R26   R(72,74)                1.4748         calculate D2E/DX2 analytically  !
 ! R27   R(72,75)                1.8161         calculate D2E/DX2 analytically  !
 ! R28   R(75,76)                1.3922         calculate D2E/DX2 analytically  !
 ! R29   R(75,80)                1.3232         calculate D2E/DX2 analytically  !
 ! R30   R(76,77)                1.3924         calculate D2E/DX2 analytically  !
 ! R31   R(76,133)               1.0804         calculate D2E/DX2 analytically  !
 ! R32   R(77,78)                1.3937         calculate D2E/DX2 analytically  !
 ! R33   R(77,134)               1.0852         calculate D2E/DX2 analytically  !
 ! R34   R(78,79)                1.3962         calculate D2E/DX2 analytically  !
 ! R35   R(78,135)               1.0844         calculate D2E/DX2 analytically  !
 ! R36   R(79,80)                1.3373         calculate D2E/DX2 analytically  !
 ! R37   R(79,136)               1.0871         calculate D2E/DX2 analytically  !
 ! R38   R(81,82)                1.3297         calculate D2E/DX2 analytically  !
 ! R39   R(81,85)                1.4034         calculate D2E/DX2 analytically  !
 ! R40   R(81,137)               1.0656         calculate D2E/DX2 analytically  !
 ! R41   R(82,83)                1.4165         calculate D2E/DX2 analytically  !
 ! R42   R(82,138)               1.0816         calculate D2E/DX2 analytically  !
 ! R43   R(83,84)                1.3812         calculate D2E/DX2 analytically  !
 ! R44   R(83,139)               1.0805         calculate D2E/DX2 analytically  !
 ! R45   R(84,85)                1.4329         calculate D2E/DX2 analytically  !
 ! R46   R(84,140)               1.082          calculate D2E/DX2 analytically  !
 ! R47   R(85,141)               1.0828         calculate D2E/DX2 analytically  !
 ! A1    A(9,12,25)            117.9022         calculate D2E/DX2 analytically  !
 ! A2    A(15,22,25)           112.0731         calculate D2E/DX2 analytically  !
 ! A3    A(12,25,22)           106.9585         calculate D2E/DX2 analytically  !
 ! A4    A(12,25,26)           111.3054         calculate D2E/DX2 analytically  !
 ! A5    A(12,25,27)           104.112          calculate D2E/DX2 analytically  !
 ! A6    A(22,25,26)           106.8543         calculate D2E/DX2 analytically  !
 ! A7    A(22,25,27)           109.6909         calculate D2E/DX2 analytically  !
 ! A8    A(26,25,27)           117.5018         calculate D2E/DX2 analytically  !
 ! A9    A(25,26,137)          115.1415         calculate D2E/DX2 analytically  !
 ! A10   A(25,27,96)           134.516          calculate D2E/DX2 analytically  !
 ! A11   A(65,64,69)           119.7153         calculate D2E/DX2 analytically  !
 ! A12   A(65,64,127)          119.8857         calculate D2E/DX2 analytically  !
 ! A13   A(69,64,127)          120.3988         calculate D2E/DX2 analytically  !
 ! A14   A(64,65,66)           120.6904         calculate D2E/DX2 analytically  !
 ! A15   A(64,65,128)          119.8207         calculate D2E/DX2 analytically  !
 ! A16   A(66,65,128)          119.4797         calculate D2E/DX2 analytically  !
 ! A17   A(65,66,67)           119.3206         calculate D2E/DX2 analytically  !
 ! A18   A(65,66,70)           117.7504         calculate D2E/DX2 analytically  !
 ! A19   A(67,66,70)           122.9237         calculate D2E/DX2 analytically  !
 ! A20   A(66,67,68)           119.7288         calculate D2E/DX2 analytically  !
 ! A21   A(66,67,129)          119.7055         calculate D2E/DX2 analytically  !
 ! A22   A(68,67,129)          120.5632         calculate D2E/DX2 analytically  !
 ! A23   A(67,68,69)           120.5883         calculate D2E/DX2 analytically  !
 ! A24   A(67,68,130)          120.0592         calculate D2E/DX2 analytically  !
 ! A25   A(69,68,130)          119.3498         calculate D2E/DX2 analytically  !
 ! A26   A(64,69,68)           119.9402         calculate D2E/DX2 analytically  !
 ! A27   A(64,69,131)          120.1264         calculate D2E/DX2 analytically  !
 ! A28   A(68,69,131)          119.9334         calculate D2E/DX2 analytically  !
 ! A29   A(66,70,71)           119.8744         calculate D2E/DX2 analytically  !
 ! A30   A(66,70,132)          113.1648         calculate D2E/DX2 analytically  !
 ! A31   A(71,70,132)          112.7102         calculate D2E/DX2 analytically  !
 ! A32   A(70,71,72)           116.2653         calculate D2E/DX2 analytically  !
 ! A33   A(70,71,96)           121.5565         calculate D2E/DX2 analytically  !
 ! A34   A(72,71,96)           113.6357         calculate D2E/DX2 analytically  !
 ! A35   A(71,72,73)           108.1793         calculate D2E/DX2 analytically  !
 ! A36   A(71,72,74)           108.2806         calculate D2E/DX2 analytically  !
 ! A37   A(71,72,75)           101.5084         calculate D2E/DX2 analytically  !
 ! A38   A(73,72,74)           118.874          calculate D2E/DX2 analytically  !
 ! A39   A(73,72,75)           111.2254         calculate D2E/DX2 analytically  !
 ! A40   A(74,72,75)           107.3504         calculate D2E/DX2 analytically  !
 ! A41   A(72,75,76)           118.2915         calculate D2E/DX2 analytically  !
 ! A42   A(72,75,80)           115.6634         calculate D2E/DX2 analytically  !
 ! A43   A(76,75,80)           126.0228         calculate D2E/DX2 analytically  !
 ! A44   A(75,76,77)           116.621          calculate D2E/DX2 analytically  !
 ! A45   A(75,76,133)          121.1664         calculate D2E/DX2 analytically  !
 ! A46   A(77,76,133)          122.2022         calculate D2E/DX2 analytically  !
 ! A47   A(76,77,78)           118.847          calculate D2E/DX2 analytically  !
 ! A48   A(76,77,134)          120.0685         calculate D2E/DX2 analytically  !
 ! A49   A(78,77,134)          121.0839         calculate D2E/DX2 analytically  !
 ! A50   A(77,78,79)           118.9659         calculate D2E/DX2 analytically  !
 ! A51   A(77,78,135)          121.1524         calculate D2E/DX2 analytically  !
 ! A52   A(79,78,135)          119.8817         calculate D2E/DX2 analytically  !
 ! A53   A(78,79,80)           122.9246         calculate D2E/DX2 analytically  !
 ! A54   A(78,79,136)          120.8768         calculate D2E/DX2 analytically  !
 ! A55   A(80,79,136)          116.1978         calculate D2E/DX2 analytically  !
 ! A56   A(75,80,79)           116.6015         calculate D2E/DX2 analytically  !
 ! A57   A(82,81,85)           109.3524         calculate D2E/DX2 analytically  !
 ! A58   A(82,81,137)          123.2452         calculate D2E/DX2 analytically  !
 ! A59   A(85,81,137)          127.2233         calculate D2E/DX2 analytically  !
 ! A60   A(81,82,83)           109.9406         calculate D2E/DX2 analytically  !
 ! A61   A(81,82,138)          120.8019         calculate D2E/DX2 analytically  !
 ! A62   A(83,82,138)          129.2537         calculate D2E/DX2 analytically  !
 ! A63   A(82,83,84)           106.3717         calculate D2E/DX2 analytically  !
 ! A64   A(82,83,139)          125.6169         calculate D2E/DX2 analytically  !
 ! A65   A(84,83,139)          128.011          calculate D2E/DX2 analytically  !
 ! A66   A(83,84,85)           108.2292         calculate D2E/DX2 analytically  !
 ! A67   A(83,84,140)          127.3664         calculate D2E/DX2 analytically  !
 ! A68   A(85,84,140)          124.334          calculate D2E/DX2 analytically  !
 ! A69   A(81,85,84)           105.6836         calculate D2E/DX2 analytically  !
 ! A70   A(81,85,141)          119.2008         calculate D2E/DX2 analytically  !
 ! A71   A(84,85,141)          123.8491         calculate D2E/DX2 analytically  !
 ! A72   L(27,96,71,67,-1)     188.8901         calculate D2E/DX2 analytically  !
 ! A73   L(26,137,81,67,-1)    178.5696         calculate D2E/DX2 analytically  !
 ! A74   L(27,96,71,67,-2)     176.7016         calculate D2E/DX2 analytically  !
 ! A75   L(26,137,81,67,-2)    174.0279         calculate D2E/DX2 analytically  !
 ! D1    D(9,12,25,22)         -26.6757         calculate D2E/DX2 analytically  !
 ! D2    D(9,12,25,26)          89.7016         calculate D2E/DX2 analytically  !
 ! D3    D(9,12,25,27)        -142.7725         calculate D2E/DX2 analytically  !
 ! D4    D(15,22,25,12)        -61.2199         calculate D2E/DX2 analytically  !
 ! D5    D(15,22,25,26)        179.4863         calculate D2E/DX2 analytically  !
 ! D6    D(15,22,25,27)         51.1053         calculate D2E/DX2 analytically  !
 ! D7    D(12,25,26,137)        82.9342         calculate D2E/DX2 analytically  !
 ! D8    D(22,25,26,137)      -160.6248         calculate D2E/DX2 analytically  !
 ! D9    D(27,25,26,137)       -36.9388         calculate D2E/DX2 analytically  !
 ! D10   D(12,25,27,96)        -99.5765         calculate D2E/DX2 analytically  !
 ! D11   D(22,25,27,96)        146.2559         calculate D2E/DX2 analytically  !
 ! D12   D(26,25,27,96)         24.0143         calculate D2E/DX2 analytically  !
 ! D13   D(25,26,81,82)        168.0419         calculate D2E/DX2 analytically  !
 ! D14   D(25,26,81,85)         -5.1886         calculate D2E/DX2 analytically  !
 ! D15   D(25,27,71,70)        -30.5206         calculate D2E/DX2 analytically  !
 ! D16   D(25,27,71,72)        112.3779         calculate D2E/DX2 analytically  !
 ! D17   D(69,64,65,66)          1.011          calculate D2E/DX2 analytically  !
 ! D18   D(69,64,65,128)       179.9083         calculate D2E/DX2 analytically  !
 ! D19   D(127,64,65,66)      -178.8295         calculate D2E/DX2 analytically  !
 ! D20   D(127,64,65,128)        0.0678         calculate D2E/DX2 analytically  !
 ! D21   D(65,64,69,68)          0.0731         calculate D2E/DX2 analytically  !
 ! D22   D(65,64,69,131)      -179.978          calculate D2E/DX2 analytically  !
 ! D23   D(127,64,69,68)       179.9128         calculate D2E/DX2 analytically  !
 ! D24   D(127,64,69,131)       -0.1384         calculate D2E/DX2 analytically  !
 ! D25   D(64,65,66,67)         -1.5416         calculate D2E/DX2 analytically  !
 ! D26   D(64,65,66,70)        177.6468         calculate D2E/DX2 analytically  !
 ! D27   D(128,65,66,67)       179.5574         calculate D2E/DX2 analytically  !
 ! D28   D(128,65,66,70)        -1.2542         calculate D2E/DX2 analytically  !
 ! D29   D(65,66,67,68)          0.9894         calculate D2E/DX2 analytically  !
 ! D30   D(65,66,67,129)      -179.5836         calculate D2E/DX2 analytically  !
 ! D31   D(70,66,67,68)       -178.1549         calculate D2E/DX2 analytically  !
 ! D32   D(70,66,67,129)         1.2721         calculate D2E/DX2 analytically  !
 ! D33   D(65,66,70,71)       -148.0079         calculate D2E/DX2 analytically  !
 ! D34   D(65,66,70,132)       -11.1166         calculate D2E/DX2 analytically  !
 ! D35   D(67,66,70,71)         31.1491         calculate D2E/DX2 analytically  !
 ! D36   D(67,66,70,132)       168.0404         calculate D2E/DX2 analytically  !
 ! D37   D(66,67,68,69)          0.0776         calculate D2E/DX2 analytically  !
 ! D38   D(66,67,68,130)       179.4709         calculate D2E/DX2 analytically  !
 ! D39   D(129,67,68,69)      -179.3445         calculate D2E/DX2 analytically  !
 ! D40   D(129,67,68,130)        0.0489         calculate D2E/DX2 analytically  !
 ! D41   D(67,68,69,64)         -0.617          calculate D2E/DX2 analytically  !
 ! D42   D(67,68,69,131)       179.4341         calculate D2E/DX2 analytically  !
 ! D43   D(130,68,69,64)       179.9855         calculate D2E/DX2 analytically  !
 ! D44   D(130,68,69,131)        0.0365         calculate D2E/DX2 analytically  !
 ! D45   D(66,70,71,72)        158.3979         calculate D2E/DX2 analytically  !
 ! D46   D(66,70,71,96)        -55.7351         calculate D2E/DX2 analytically  !
 ! D47   D(132,70,71,72)        21.327          calculate D2E/DX2 analytically  !
 ! D48   D(132,70,71,96)       167.194          calculate D2E/DX2 analytically  !
 ! D49   D(70,71,72,73)        -73.1647         calculate D2E/DX2 analytically  !
 ! D50   D(70,71,72,74)         56.9072         calculate D2E/DX2 analytically  !
 ! D51   D(70,71,72,75)        169.7229         calculate D2E/DX2 analytically  !
 ! D52   D(96,71,72,73)        138.2966         calculate D2E/DX2 analytically  !
 ! D53   D(96,71,72,74)        -91.6315         calculate D2E/DX2 analytically  !
 ! D54   D(96,71,72,75)         21.1842         calculate D2E/DX2 analytically  !
 ! D55   D(71,72,75,76)        -93.3221         calculate D2E/DX2 analytically  !
 ! D56   D(71,72,75,80)         88.2922         calculate D2E/DX2 analytically  !
 ! D57   D(73,72,75,76)        151.8029         calculate D2E/DX2 analytically  !
 ! D58   D(73,72,75,80)        -26.5828         calculate D2E/DX2 analytically  !
 ! D59   D(74,72,75,76)         20.1923         calculate D2E/DX2 analytically  !
 ! D60   D(74,72,75,80)       -158.1934         calculate D2E/DX2 analytically  !
 ! D61   D(72,75,76,77)       -177.0903         calculate D2E/DX2 analytically  !
 ! D62   D(72,75,76,133)         4.0613         calculate D2E/DX2 analytically  !
 ! D63   D(80,75,76,77)          1.1106         calculate D2E/DX2 analytically  !
 ! D64   D(80,75,76,133)      -177.7379         calculate D2E/DX2 analytically  !
 ! D65   D(72,75,80,79)        177.6426         calculate D2E/DX2 analytically  !
 ! D66   D(76,75,80,79)         -0.5998         calculate D2E/DX2 analytically  !
 ! D67   D(75,76,77,78)         -0.3363         calculate D2E/DX2 analytically  !
 ! D68   D(75,76,77,134)       179.94           calculate D2E/DX2 analytically  !
 ! D69   D(133,76,77,78)       178.4992         calculate D2E/DX2 analytically  !
 ! D70   D(133,76,77,134)       -1.2245         calculate D2E/DX2 analytically  !
 ! D71   D(76,77,78,79)         -0.8041         calculate D2E/DX2 analytically  !
 ! D72   D(76,77,78,135)       179.1814         calculate D2E/DX2 analytically  !
 ! D73   D(134,77,78,79)       178.9167         calculate D2E/DX2 analytically  !
 ! D74   D(134,77,78,135)       -1.0978         calculate D2E/DX2 analytically  !
 ! D75   D(77,78,79,80)          1.3864         calculate D2E/DX2 analytically  !
 ! D76   D(77,78,79,136)      -178.9643         calculate D2E/DX2 analytically  !
 ! D77   D(135,78,79,80)      -178.5993         calculate D2E/DX2 analytically  !
 ! D78   D(135,78,79,136)        1.05           calculate D2E/DX2 analytically  !
 ! D79   D(78,79,80,75)         -0.6894         calculate D2E/DX2 analytically  !
 ! D80   D(136,79,80,75)       179.646          calculate D2E/DX2 analytically  !
 ! D81   D(85,81,82,83)         -4.4174         calculate D2E/DX2 analytically  !
 ! D82   D(85,81,82,138)       174.9427         calculate D2E/DX2 analytically  !
 ! D83   D(137,81,82,83)      -179.8684         calculate D2E/DX2 analytically  !
 ! D84   D(137,81,82,138)       -0.5083         calculate D2E/DX2 analytically  !
 ! D85   D(82,81,85,84)          6.4876         calculate D2E/DX2 analytically  !
 ! D86   D(82,81,85,141)       151.5427         calculate D2E/DX2 analytically  !
 ! D87   D(137,81,85,84)      -178.2907         calculate D2E/DX2 analytically  !
 ! D88   D(137,81,85,141)      -33.2356         calculate D2E/DX2 analytically  !
 ! D89   D(81,82,83,84)          0.4198         calculate D2E/DX2 analytically  !
 ! D90   D(81,82,83,139)      -179.8026         calculate D2E/DX2 analytically  !
 ! D91   D(138,82,83,84)      -178.8704         calculate D2E/DX2 analytically  !
 ! D92   D(138,82,83,139)        0.9072         calculate D2E/DX2 analytically  !
 ! D93   D(82,83,84,85)          3.6365         calculate D2E/DX2 analytically  !
 ! D94   D(82,83,84,140)      -179.3323         calculate D2E/DX2 analytically  !
 ! D95   D(139,83,84,85)      -176.134          calculate D2E/DX2 analytically  !
 ! D96   D(139,83,84,140)        0.8972         calculate D2E/DX2 analytically  !
 ! D97   D(83,84,85,81)         -6.1726         calculate D2E/DX2 analytically  !
 ! D98   D(83,84,85,141)      -149.1566         calculate D2E/DX2 analytically  !
 ! D99   D(140,84,85,81)       176.6847         calculate D2E/DX2 analytically  !
 ! D100  D(140,84,85,141)       33.7007         calculate D2E/DX2 analytically  !
 --------------------------------------------------------------------------------
 Trust Radius=3.00D-01 FncErr=1.00D-07 GrdErr=1.00D-07
 Number of steps in this run=    232 maximum allowed number of steps=    270.
 Search for a saddle point of order  1.
 GradGradGradGradGradGradGradGradGradGradGradGradGradGradGradGradGradGrad

 Stoichiometry    C72H56N3O6PSSi2
 Framework group  C1[X(C72H56N3O6PSSi2)]
 Deg. of freedom   417
 Full point group                 C1      NOp   1
 Largest Abelian subgroup         C1      NOp   1
 Largest concise Abelian subgroup C1      NOp   1
                         Standard orientation:                         
 ---------------------------------------------------------------------
 Center     Atomic      Atomic             Coordinates (Angstroms)
 Number     Number       Type             X           Y           Z
 ---------------------------------------------------------------------
      1          6    10061000       -0.453533   -5.392040   -0.425630
      2          6    10061000       -1.365795   -4.219150   -0.306419
      3          6    10061000       -0.928258   -6.584761   -0.802614
      4          6    10061000       -2.665842   -4.369782   -0.638435
      5          6    10061000       -0.868380   -2.878229    0.132298
      6          6    10061000       -3.183073   -5.696499   -1.048100
      7          6    10061000       -3.569776   -3.207422   -0.631418
      8          6    10061000       -2.359170   -6.746764   -1.119173
      9          6    10061000       -1.672600   -1.791373    0.010725
     10          6    10061000        0.523611   -2.725593    0.627504
     11          6    10061000       -3.106009   -1.978226   -0.363150
     12          8    10081000       -1.249263   -0.552057    0.436481
     13         14    10141003       -4.273356   -0.521351   -0.428336
     14          6    10061000        1.010222   -3.408682    1.688708
     15          6    10061000        1.427498   -1.850306   -0.156962
     16          6    10061000        2.467536   -3.370488    1.976555
     17          6    10061000        0.154361   -4.218817    2.590277
     18          6    10061000        3.294092   -2.670851    1.187112
     19          6    10061000        2.983803   -4.152649    3.117013
     20          6    10061000        2.759697   -1.891467    0.047956
     21         14    10141003        3.957469   -0.969456   -1.042570
     22          8    10081000        0.876578   -1.015813   -1.094774
     23          6    10061000        0.693854   -4.900282    3.607883
     24          6    10061000        2.148451   -4.871464    3.875300
     25         15    10151004       -0.014213    0.182873   -0.407866
     26          8    10081002       -0.548417    1.028995   -1.532602
     27          8    10081002        0.803537    0.877318    0.663092
     28          6    10061000       -3.892155    0.559204   -1.892294
     29          6    10061000       -6.030351   -1.073050   -0.696611
     30          6    10061000       -4.134040    0.354758    1.205280
     31          6    10061000        4.292571    0.714611   -0.319994
     32          6    10061000        5.535787   -1.957565   -1.137805
     33          6    10061000        3.216019   -0.825104   -2.748120
     34          6    10061000       -2.987387    0.181559   -2.810991
     35          6    10061000       -4.682119    1.793992   -2.116380
     36          6    10061000       -6.974770   -0.899599    0.243903
     37          6    10061000       -6.403770   -1.672086   -2.001386
     38          6    10061000       -3.973639    1.685205    1.285796
     39          6    10061000       -4.237729   -0.443770    2.450831
     40          6    10061000        4.969003    1.634976   -1.028456
     41          6    10061000        3.835418    1.045472    1.051595
     42          6    10061000        6.738678   -1.375762   -0.988523
     43          6    10061000        5.461987   -3.426363   -1.338860
     44          6    10061000        3.107000   -1.902537   -3.543868
     45          6    10061000        2.640394    0.464581   -3.197696
     46          6    10061000       -2.724943    1.031600   -3.990934
     47          6    10061000       -3.416568    2.162799   -4.169342
     48          6    10061000       -4.448928    2.558219   -3.190354
     49          6    10061000       -8.366251   -1.326915   -0.012671
     50          6    10061000       -8.694307   -1.876672   -1.187767
     51          6    10061000       -7.665369   -2.055186   -2.231658
     52          6    10061000       -3.959577    2.351691    2.604253
     53          6    10061000       -4.064628    1.628256    3.724951
     54          6    10061000       -4.201687    0.160495    3.644454
     55          6    10061000        5.239306    2.968560   -0.452582
     56          6    10061000        4.809678    3.266525    0.778694
     57          6    10061000        4.077937    2.256751    1.568407
     58          6    10061000        7.972663   -2.186495   -1.057040
     59          6    10061000        7.898301   -3.507510   -1.254432
     60          6    10061000        6.581108   -4.158255   -1.396331
     61          6    10061000        2.457268   -1.790799   -4.866902
     62          6    10061000        1.951465   -0.619464   -5.269538
     63          6    10061000        2.040526    0.562045   -4.389726
     64          6    10061000        2.187607    6.598521   -1.565704
     65          6    10061000        1.426385    6.158476   -0.485982
     66          6    10061000        1.287121    4.787563   -0.219003
     67          6    10061000        1.897845    3.855656   -1.072432
     68          6    10061000        2.649307    4.301583   -2.158201
     69          6    10061000        2.801534    5.667799   -2.403886
     70          6    10061000        0.507686    4.394011    0.975472
     71          7    10071000        0.839939    3.253583    1.663483
     72         16    10161004        0.307231    3.166873    3.290615
     73          8    10081002        1.125589    4.076727    4.086947
     74          8    10081002       -1.158610    3.328425    3.306710
     75          6    10061000        0.665563    1.433557    3.697305
     76          6    10061000       -0.346878    0.493124    3.527764
     77          6    10061000       -0.054610   -0.813846    3.908807
     78          6    10061000        1.210345   -1.098311    4.419928
     79          6    10061000        2.147697   -0.068072    4.517214
     80          7    10071000        1.879668    1.194044    4.165791
     81          7    10071000       -1.319421    3.485715   -0.944523
     82          6    10061000       -1.571351    4.349193   -1.923883
     83          6    10061000       -1.943808    5.602493   -1.378982
     84          6    10061000       -1.896205    5.459706   -0.005977
     85          6    10061000       -1.412048    4.144241    0.291366
     86          1    10011000        0.605106   -5.294820   -0.227164
     87          1    10011000       -0.260602   -7.432437   -0.888139
     88          1    10011000       -4.230309   -5.819831   -1.294966
     89          1    10011000       -4.609348   -3.368540   -0.876531
     90          1    10011000       -2.737380   -7.715004   -1.420736
     91          1    10011000       -0.918492   -4.254736    2.451653
     92          1    10011000        4.357983   -2.658430    1.391711
     93          1    10011000        4.042839   -4.151572    3.345873
     94          1    10011000        0.052917   -5.481156    4.258569
     95          1    10011000        2.540459   -5.440048    4.708744
     96          1    10011000        0.892108    2.294684    1.174211
     97          1    10011000       -2.431005   -0.739990   -2.703227
     98          1    10011000       -5.457287    2.079519   -1.416455
     99          1    10011000       -6.742671   -0.445042    1.196442
    100          1    10011000       -5.655722   -1.803424   -2.773487
    101          1    10011000       -3.872900    2.293623    0.400418
    102          1    10011000       -4.346164   -1.520042    2.399459
    103          1    10011000        5.319334    1.415620   -2.029434
    104          1    10011000        3.307019    0.312279    1.645818
    105          1    10011000        6.833142   -0.313779   -0.818583
    106          1    10011000        4.502074   -3.920291   -1.415393
    107          1    10011000        3.476289   -2.867532   -3.231683
    108          1    10011000        2.664632    1.322896   -2.548339
    109          1    10011000       -1.970473    0.736687   -4.708846
    110          1    10011000       -3.224583    2.787440   -5.032001
    111          1    10011000       -5.022170    3.462396   -3.348693
    112          1    10011000       -9.119745   -1.191610    0.752425
    113          1    10011000       -9.713346   -2.188467   -1.376836
    114          1    10011000       -7.934807   -2.494127   -3.183561
    115          1    10011000       -3.864022    3.428307    2.660237
    116          1    10011000       -4.047726    2.116078    4.690821
    117          1    10011000       -4.277176   -0.423920    4.552172
    118          1    10011000        5.774595    3.707405   -1.034646
    119          1    10011000        4.997075    4.246382    1.198142
    120          1    10011000        3.742179    2.499999    2.567397
    121          1    10011000        8.937124   -1.707843   -0.946514
    122          1    10011000        8.801329   -4.102138   -1.303417
    123          1    10011000        6.522816   -5.229960   -1.536075
    124          1    10011000        2.385667   -2.661390   -5.505908
    125          1    10011000        1.469492   -0.537528   -6.235110
    126          1    10011000        1.607291    1.502762   -4.704466
    127          1    10011000        2.302152    7.662459   -1.748970
    128          1    10011000        0.948723    6.881869    0.168780
    129          1    10011000        1.788612    2.794450   -0.875831
    130          1    10011000        3.130592    3.586395   -2.816045
    131          1    10011000        3.396993    6.003588   -3.247654
    132          1    10011000        0.281106    5.230175    1.633099
    133          1    10011000       -1.301171    0.769319    3.103203
    134          1    10011000       -0.803572   -1.591790    3.801759
    135          1    10011000        1.473595   -2.100273    4.740368
    136          1    10011000        3.148865   -0.258606    4.895609
    137          1    10011000       -1.018754    2.478080   -1.117084
    138          1    10011000       -1.470334    4.056247   -2.960187
    139          1    10011000       -2.205399    6.483175   -1.947692
    140          1    10011000       -2.127540    6.208049    0.740481
    141          1    10011000       -1.698719    3.580405    1.170192
 ---------------------------------------------------------------------
 Rotational constants (GHZ):      0.0289834      0.0233568      0.0190993
 ONIOM: Cut between C /H     9 and O    12 factor= 0.686809 0.686809
 ONIOM: Cut between C /H    15 and O    22 factor= 0.686809 0.686809
 ONIOM: saving gridpoint 17
 ONIOM: generating point  3 -- low level on real system.
 Standard basis: Dummy (5D, 7F)
 There are   141 symmetry adapted cartesian basis functions of A   symmetry.
 There are   141 symmetry adapted basis functions of A   symmetry.
   141 basis functions,   141 primitive gaussians,   141 cartesian basis functions
   111 alpha electrons      111 beta electrons
       nuclear repulsion energy      2174.0349321605 Hartrees.
 NAtoms=  141 NActive=  141 NUniq=  141 SFac= 1.00D+00 NAtFMM=   60 NAOKFM=T Big=T
 Integral buffers will be    131072 words long.
 Raffenetti 1 integral format.
 Two-electron integral symmetry is turned on.
 Compact hessian requested for MM, so only forces done here.
 UFF calculation of energy and first derivatives.
 Energy=     107.943729     NIter=   0.
 Dipole moment=       0.000000       0.000000       0.000000
 ***** Axes restored to original set *****
 Cartesian Forces:  Max   320.169692158 RMS    30.659905872
 ONIOM: saving gridpoint  3
 ONIOM: restoring gridpoint 17
 ONIOM: generating point  2 -- high level on model system.
 Standard basis: 6-31G(d,p) (6D, 7F)
 There are   503 symmetry adapted cartesian basis functions of A   symmetry.
 There are   503 symmetry adapted basis functions of A   symmetry.
   503 basis functions,   930 primitive gaussians,   503 cartesian basis functions
   107 alpha electrons      107 beta electrons
       nuclear repulsion energy      3060.1320756651 Hartrees.
 NAtoms=  141 NActive=   45 NUniq=   45 SFac= 1.00D+00 NAtFMM=   60 NAOKFM=F Big=F
 Integral buffers will be    131072 words long.
 Raffenetti 2 integral format.
 Two-electron integral symmetry is turned on.
 One-electron integrals computed using PRISM.
 NBasis=   503 RedAO= T EigKep=  4.44D-04  NBF=   503
 NBsUse=   503 1.00D-06 EigRej= -1.00D+00 NBFU=   503
 ExpMin= 9.98D-02 ExpMax= 2.19D+04 ExpMxC= 3.30D+03 IAcc=2 IRadAn=         4 AccDes= 0.00D+00
 Harris functional with IExCor=  402 and IRadAn=       4 diagonalized for initial guess.
 HarFok:  IExCor=  402 AccDes= 0.00D+00 IRadAn=         4 IDoV= 1 UseB2=F ITyADJ=14
 ICtDFT=  3500011 ScaDFX=  1.000000  1.000000  1.000000  1.000000
 FoFCou: FMM=F IPFlag=           0 FMFlag=      100000 FMFlg1=           0
         NFxFlg=           0 DoJE=T BraDBF=F KetDBF=T FulRan=T
         wScrn=  0.000000 ICntrl=     500 IOpCl=  0 I1Cent=   200000004 NGrid=           0
         NMat0=    1 NMatS0=      1 NMatT0=    0 NMatD0=    1 NMtDS0=    0 NMtDT0=    0
 Petite list used in FoFCou.
 Requested convergence on RMS density matrix=1.00D-08 within 128 cycles.
 Requested convergence on MAX density matrix=1.00D-06.
 Requested convergence on             energy=1.00D-06.
 No special actions if energy rises.
 Integral accuracy reduced to 1.0D-05 until final iterations.
 Initial convergence to 1.0D-05 achieved.  Increase integral accuracy.
 SCF Done:  E(RB3LYP) =  -1975.68977155     A.U. after   16 cycles
            NFock= 16  Conv=0.55D-08     -V/T= 2.0073
 DoSCS=F DFT=T ScalE2(SS,OS)=  1.000000  1.000000
 Range of M.O.s used for correlation:     1   503
 NBasis=   503 NAE=   107 NBE=   107 NFC=     0 NFV=     0
 NROrb=    503 NOA=   107 NOB=   107 NVA=   396 NVB=   396
 Symmetrizing basis deriv contribution to polar:
 IMax=3 JMax=2 DiffMx= 0.00D+00
 G2DrvN: will do    46 centers at a time, making    1 passes.
 Calling FoFCou, ICntrl=  3107 FMM=F I1Cent=   0 AccDes= 0.00D+00.
 End of G2Drv F.D. properties file   721 does not exist.
 End of G2Drv F.D. properties file   722 does not exist.
 End of G2Drv F.D. properties file   788 does not exist.
          IDoAtm=11111111111111111111111111111111111111111111111111
          IDoAtm=11111111111111111111111111111111111111111111111111
          IDoAtm=11111111111111111111111111111111111111111
          IDoAtC=111111111111111111111111111111111111111111111
          Differentiating once with respect to nuclear coordinates.
          There are   138 degrees of freedom in the 1st order CPHF.  IDoFFX=6 NUNeed=     0.
    132 vectors produced by pass  0 Test12= 4.24D-14 1.00D-09 XBig12= 3.08D-01 1.75D-01.
 AX will form   132 AO Fock derivatives at one time.
    132 vectors produced by pass  1 Test12= 4.24D-14 1.00D-09 XBig12= 3.20D-02 2.54D-02.
    132 vectors produced by pass  2 Test12= 4.24D-14 1.00D-09 XBig12= 4.08D-04 2.03D-03.
    132 vectors produced by pass  3 Test12= 4.24D-14 1.00D-09 XBig12= 1.30D-06 1.14D-04.
    132 vectors produced by pass  4 Test12= 4.24D-14 1.00D-09 XBig12= 2.61D-09 5.94D-06.
    119 vectors produced by pass  5 Test12= 4.24D-14 1.00D-09 XBig12= 4.37D-12 1.63D-07.
     35 vectors produced by pass  6 Test12= 4.24D-14 1.00D-09 XBig12= 5.28D-15 6.25D-09.
 InvSVY:  IOpt=1 It=  1 EMax= 1.11D-15
 Solved reduced A of dimension   814 with   138 vectors.
 End of Minotr F.D. properties file   721 does not exist.
 End of Minotr F.D. properties file   722 does not exist.
 End of Minotr F.D. properties file   788 does not exist.

 **********************************************************************

            Population analysis using the SCF density.

 **********************************************************************

 Orbital symmetries:
       Occupied  (A) (A) (A) (A) (A) (A) (A) (A) (A) (A) (A) (A)
                 (A) (A) (A) (A) (A) (A) (A) (A) (A) (A) (A) (A)
                 (A) (A) (A) (A) (A) (A) (A) (A) (A) (A) (A) (A)
                 (A) (A) (A) (A) (A) (A) (A) (A) (A) (A) (A) (A)
                 (A) (A) (A) (A) (A) (A) (A) (A) (A) (A) (A) (A)
                 (A) (A) (A) (A) (A) (A) (A) (A) (A) (A) (A) (A)
                 (A) (A) (A) (A) (A) (A) (A) (A) (A) (A) (A) (A)
                 (A) (A) (A) (A) (A) (A) (A) (A) (A) (A) (A) (A)
                 (A) (A) (A) (A) (A) (A) (A) (A) (A) (A) (A)
       Virtual   (A) (A) (A) (A) (A) (A) (A) (A) (A) (A) (A) (A)
                 (A) (A) (A) (A) (A) (A) (A) (A) (A) (A) (A) (A)
                 (A) (A) (A) (A) (A) (A) (A) (A) (A) (A) (A) (A)
                 (A) (A) (A) (A) (A) (A) (A) (A) (A) (A) (A) (A)
                 (A) (A) (A) (A) (A) (A) (A) (A) (A) (A) (A) (A)
                 (A) (A) (A) (A) (A) (A) (A) (A) (A) (A) (A) (A)
                 (A) (A) (A) (A) (A) (A) (A) (A) (A) (A) (A) (A)
                 (A) (A) (A) (A) (A) (A) (A) (A) (A) (A) (A) (A)
                 (A) (A) (A) (A) (A) (A) (A) (A) (A) (A) (A) (A)
                 (A) (A) (A) (A) (A) (A) (A) (A) (A) (A) (A) (A)
                 (A) (A) (A) (A) (A) (A) (A) (A) (A) (A) (A) (A)
                 (A) (A) (A) (A) (A) (A) (A) (A) (A) (A) (A) (A)
                 (A) (A) (A) (A) (A) (A) (A) (A) (A) (A) (A) (A)
                 (A) (A) (A) (A) (A) (A) (A) (A) (A) (A) (A) (A)
                 (A) (A) (A) (A) (A) (A) (A) (A) (A) (A) (A) (A)
                 (A) (A) (A) (A) (A) (A) (A) (A) (A) (A) (A) (A)
                 (A) (A) (A) (A) (A) (A) (A) (A) (A) (A) (A) (A)
                 (A) (A) (A) (A) (A) (A) (A) (A) (A) (A) (A) (A)
                 (A) (A) (A) (A) (A) (A) (A) (A) (A) (A) (A) (A)
                 (A) (A) (A) (A) (A) (A) (A) (A) (A) (A) (A) (A)
                 (A) (A) (A) (A) (A) (A) (A) (A) (A) (A) (A) (A)
                 (A) (A) (A) (A) (A) (A) (A) (A) (A) (A) (A) (A)
                 (A) (A) (A) (A) (A) (A) (A) (A) (A) (A) (A) (A)
                 (A) (A) (A) (A) (A) (A) (A) (A) (A) (A) (A) (A)
                 (A) (A) (A) (A) (A) (A) (A) (A) (A) (A) (A) (A)
                 (A) (A) (A) (A) (A) (A) (A) (A) (A) (A) (A) (A)
                 (A) (A) (A) (A) (A) (A) (A) (A) (A) (A) (A) (A)
                 (A) (A) (A) (A) (A) (A) (A) (A) (A) (A) (A) (A)
                 (A) (A) (A) (A) (A) (A) (A) (A) (A) (A) (A) (A)
                 (A) (A) (A) (A) (A) (A) (A) (A) (A) (A) (A) (A)
                 (A) (A) (A) (A) (A) (A) (A) (A) (A) (A) (A) (A)
                 (A) (A) (A) (A) (A) (A) (A) (A) (A) (A) (A) (A)
                 (A) (A) (A) (A) (A) (A) (A) (A) (A) (A) (A) (A)
 The electronic state is 1-A.
 Alpha  occ. eigenvalues --  -89.11270 -77.20867 -19.16020 -19.15570 -19.14718
 Alpha  occ. eigenvalues --  -19.14534 -19.08947 -19.08669 -14.38711 -14.37042
 Alpha  occ. eigenvalues --  -14.35404 -10.28636 -10.26103 -10.25267 -10.24039
 Alpha  occ. eigenvalues --  -10.23579 -10.22396 -10.21939 -10.21843 -10.21579
 Alpha  occ. eigenvalues --  -10.21462 -10.20740 -10.20678 -10.20332 -10.20216
 Alpha  occ. eigenvalues --  -10.20083 -10.19951  -8.13927  -6.65227  -6.10430
 Alpha  occ. eigenvalues --   -6.10307  -6.10221  -4.81722  -4.81570  -4.81411
 Alpha  occ. eigenvalues --   -1.11246  -1.05367  -1.00514  -1.00084  -0.99687
 Alpha  occ. eigenvalues --   -0.96748  -0.95755  -0.94435  -0.91847  -0.86673
 Alpha  occ. eigenvalues --   -0.82183  -0.79936  -0.79568  -0.77814  -0.75657
 Alpha  occ. eigenvalues --   -0.74579  -0.70906  -0.66386  -0.65024  -0.62801
 Alpha  occ. eigenvalues --   -0.61003  -0.60957  -0.59820  -0.58982  -0.58827
 Alpha  occ. eigenvalues --   -0.56729  -0.56311  -0.54633  -0.53367  -0.51880
 Alpha  occ. eigenvalues --   -0.50335  -0.49815  -0.48178  -0.47328  -0.46145
 Alpha  occ. eigenvalues --   -0.46063  -0.45900  -0.45117  -0.45013  -0.43917
 Alpha  occ. eigenvalues --   -0.43208  -0.43000  -0.42197  -0.41995  -0.41716
 Alpha  occ. eigenvalues --   -0.41370  -0.41170  -0.40531  -0.39475  -0.39385
 Alpha  occ. eigenvalues --   -0.37445  -0.36538  -0.35852  -0.35490  -0.35287
 Alpha  occ. eigenvalues --   -0.33812  -0.33250  -0.32368  -0.32162  -0.31777
 Alpha  occ. eigenvalues --   -0.30586  -0.30231  -0.30158  -0.29136  -0.28083
 Alpha  occ. eigenvalues --   -0.27709  -0.27313  -0.26502  -0.25857  -0.25736
 Alpha  occ. eigenvalues --   -0.24865  -0.23856
 Alpha virt. eigenvalues --   -0.08950  -0.05045  -0.03213  -0.01162  -0.01041
 Alpha virt. eigenvalues --    0.03885   0.04617   0.05557   0.07420   0.07754
 Alpha virt. eigenvalues --    0.08173   0.09105   0.10070   0.10374   0.10622
 Alpha virt. eigenvalues --    0.11608   0.11912   0.13951   0.14029   0.14736
 Alpha virt. eigenvalues --    0.14844   0.15093   0.15398   0.15785   0.16340
 Alpha virt. eigenvalues --    0.16495   0.17277   0.17529   0.18028   0.18433
 Alpha virt. eigenvalues --    0.19510   0.20454   0.21518   0.22629   0.23165
 Alpha virt. eigenvalues --    0.23750   0.24483   0.25069   0.26316   0.28035
 Alpha virt. eigenvalues --    0.29039   0.29296   0.29811   0.31228   0.31857
 Alpha virt. eigenvalues --    0.32189   0.32973   0.34091   0.34812   0.36084
 Alpha virt. eigenvalues --    0.36987   0.38568   0.39640   0.40991   0.41727
 Alpha virt. eigenvalues --    0.42577   0.43679   0.44110   0.46008   0.46943
 Alpha virt. eigenvalues --    0.47756   0.48347   0.50043   0.50209   0.51861
 Alpha virt. eigenvalues --    0.52368   0.53275   0.53600   0.54359   0.55124
 Alpha virt. eigenvalues --    0.55698   0.56347   0.57016   0.57103   0.57819
 Alpha virt. eigenvalues --    0.57943   0.58377   0.58641   0.58961   0.59606
 Alpha virt. eigenvalues --    0.60152   0.60340   0.60439   0.60578   0.61304
 Alpha virt. eigenvalues --    0.61435   0.62200   0.62894   0.63723   0.64597
 Alpha virt. eigenvalues --    0.65081   0.66295   0.66893   0.67603   0.67874
 Alpha virt. eigenvalues --    0.69728   0.71287   0.73592   0.75018   0.75764
 Alpha virt. eigenvalues --    0.76609   0.77740   0.78065   0.78696   0.78860
 Alpha virt. eigenvalues --    0.79907   0.80049   0.80548   0.80990   0.81285
 Alpha virt. eigenvalues --    0.81583   0.82115   0.82331   0.83149   0.83393
 Alpha virt. eigenvalues --    0.83593   0.84745   0.85764   0.86922   0.87219
 Alpha virt. eigenvalues --    0.87539   0.87896   0.88015   0.89222   0.90331
 Alpha virt. eigenvalues --    0.90960   0.91452   0.92258   0.92512   0.93691
 Alpha virt. eigenvalues --    0.94095   0.94870   0.95404   0.96154   0.97183
 Alpha virt. eigenvalues --    0.97824   0.98821   1.00283   1.00602   1.00936
 Alpha virt. eigenvalues --    1.02680   1.03058   1.03384   1.04170   1.05605
 Alpha virt. eigenvalues --    1.06100   1.06478   1.07415   1.08378   1.08903
 Alpha virt. eigenvalues --    1.09978   1.11226   1.12180   1.12533   1.13323
 Alpha virt. eigenvalues --    1.14309   1.15803   1.16371   1.16642   1.18190
 Alpha virt. eigenvalues --    1.18891   1.19759   1.20900   1.22077   1.22203
 Alpha virt. eigenvalues --    1.23367   1.24529   1.24990   1.27321   1.27962
 Alpha virt. eigenvalues --    1.28553   1.29048   1.30976   1.31716   1.32315
 Alpha virt. eigenvalues --    1.32744   1.32911   1.34322   1.35275   1.36833
 Alpha virt. eigenvalues --    1.37589   1.38195   1.38895   1.39397   1.39869
 Alpha virt. eigenvalues --    1.40549   1.40694   1.41490   1.42010   1.42834
 Alpha virt. eigenvalues --    1.44259   1.45281   1.46320   1.47136   1.48912
 Alpha virt. eigenvalues --    1.49959   1.50883   1.54775   1.56168   1.57597
 Alpha virt. eigenvalues --    1.58919   1.59627   1.60052   1.61449   1.63426
 Alpha virt. eigenvalues --    1.64458   1.67879   1.68917   1.70175   1.71979
 Alpha virt. eigenvalues --    1.73968   1.74386   1.75051   1.76215   1.76680
 Alpha virt. eigenvalues --    1.77494   1.78518   1.78949   1.79826   1.80314
 Alpha virt. eigenvalues --    1.81412   1.82224   1.82627   1.83234   1.84497
 Alpha virt. eigenvalues --    1.84873   1.85601   1.86470   1.87228   1.87816
 Alpha virt. eigenvalues --    1.88050   1.89708   1.90340   1.91385   1.92046
 Alpha virt. eigenvalues --    1.92647   1.93683   1.94818   1.95586   1.96314
 Alpha virt. eigenvalues --    1.96501   1.97411   1.97917   1.98791   1.99416
 Alpha virt. eigenvalues --    1.99655   2.00198   2.01064   2.01096   2.02383
 Alpha virt. eigenvalues --    2.04796   2.06254   2.06788   2.08090   2.08919
 Alpha virt. eigenvalues --    2.08937   2.11198   2.12505   2.14048   2.14595
 Alpha virt. eigenvalues --    2.15469   2.16481   2.18030   2.18520   2.19356
 Alpha virt. eigenvalues --    2.21106   2.21804   2.23101   2.24813   2.25691
 Alpha virt. eigenvalues --    2.28610   2.29522   2.30222   2.30665   2.31469
 Alpha virt. eigenvalues --    2.32045   2.33149   2.34272   2.35568   2.36095
 Alpha virt. eigenvalues --    2.36343   2.36739   2.37920   2.38143   2.38907
 Alpha virt. eigenvalues --    2.39019   2.40351   2.40699   2.41751   2.42975
 Alpha virt. eigenvalues --    2.43601   2.43823   2.44615   2.45473   2.45598
 Alpha virt. eigenvalues --    2.46131   2.47287   2.47699   2.49298   2.49540
 Alpha virt. eigenvalues --    2.50137   2.50393   2.52268   2.52623   2.52713
 Alpha virt. eigenvalues --    2.54202   2.55512   2.55622   2.56892   2.57277
 Alpha virt. eigenvalues --    2.58122   2.59489   2.60620   2.63190   2.64299
 Alpha virt. eigenvalues --    2.65378   2.66043   2.66686   2.67597   2.68309
 Alpha virt. eigenvalues --    2.69382   2.70240   2.71168   2.72790   2.74117
 Alpha virt. eigenvalues --    2.74337   2.75217   2.75511   2.76637   2.76932
 Alpha virt. eigenvalues --    2.78988   2.81360   2.82190   2.82944   2.84559
 Alpha virt. eigenvalues --    2.86063   2.86916   2.88932   2.89972   2.94051
 Alpha virt. eigenvalues --    2.95909   2.97240   3.01058   3.01646   3.04358
 Alpha virt. eigenvalues --    3.05488   3.16118   3.18315   3.20964   3.21659
 Alpha virt. eigenvalues --    3.22939   3.25148   3.25632   3.27999   3.30158
 Alpha virt. eigenvalues --    3.31909   3.32449   3.37114   3.39265   3.40853
 Alpha virt. eigenvalues --    3.42770   3.45093   3.46032   3.50494   3.51643
 Alpha virt. eigenvalues --    3.54611   3.67787   3.76181   3.80315   3.83843
 Alpha virt. eigenvalues --    3.89631   3.92225   3.95563   3.96278   4.06020
 Alpha virt. eigenvalues --    4.07655   4.10214   4.10564   4.12971   4.13229
 Alpha virt. eigenvalues --    4.14775   4.17624   4.19206   4.19788   4.24374
 Alpha virt. eigenvalues --    4.28375   4.31313   4.36378   4.41122   4.45866
 Alpha virt. eigenvalues --    4.49435   4.60810   4.70586   4.70909   4.73969
 Alpha virt. eigenvalues --    4.84944
          Condensed to atoms (all electrons):
 Mulliken charges:
               1
     1  C    0.000000
     2  C    0.000000
     3  C    0.000000
     4  C    0.000000
     5  C    0.000000
     6  C    0.000000
     7  C    0.000000
     8  C    0.000000
     9  H    0.317851
    10  C    0.000000
    11  C    0.000000
    12  O   -0.597330
    13  Si   0.000000
    14  C    0.000000
    15  H    0.320653
    16  C    0.000000
    17  C    0.000000
    18  C    0.000000
    19  C    0.000000
    20  C    0.000000
    21  Si   0.000000
    22  O   -0.562890
    23  C    0.000000
    24  C    0.000000
    25  P    1.164420
    26  O   -0.650190
    27  O   -0.690160
    28  C    0.000000
    29  C    0.000000
    30  C    0.000000
    31  C    0.000000
    32  C    0.000000
    33  C    0.000000
    34  C    0.000000
    35  C    0.000000
    36  C    0.000000
    37  C    0.000000
    38  C    0.000000
    39  C    0.000000
    40  C    0.000000
    41  C    0.000000
    42  C    0.000000
    43  C    0.000000
    44  C    0.000000
    45  C    0.000000
    46  C    0.000000
    47  C    0.000000
    48  C    0.000000
    49  C    0.000000
    50  C    0.000000
    51  C    0.000000
    52  C    0.000000
    53  C    0.000000
    54  C    0.000000
    55  C    0.000000
    56  C    0.000000
    57  C    0.000000
    58  C    0.000000
    59  C    0.000000
    60  C    0.000000
    61  C    0.000000
    62  C    0.000000
    63  C    0.000000
    64  C   -0.091000
    65  C   -0.106966
    66  C    0.151924
    67  C   -0.111219
    68  C   -0.097461
    69  C   -0.077166
    70  C    0.005497
    71  N   -0.640534
    72  S    1.236671
    73  O   -0.487351
    74  O   -0.558143
    75  C   -0.010733
    76  C   -0.012807
    77  C   -0.058674
    78  C   -0.091623
    79  C    0.099426
    80  N   -0.409879
    81  N   -0.453206
    82  C    0.132760
    83  C   -0.116932
    84  C   -0.071670
    85  C   -0.031097
    86  H    0.000000
    87  H    0.000000
    88  H    0.000000
    89  H    0.000000
    90  H    0.000000
    91  H    0.000000
    92  H    0.000000
    93  H    0.000000
    94  H    0.000000
    95  H    0.000000
    96  H    0.417257
    97  H    0.000000
    98  H    0.000000
    99  H    0.000000
   100  H    0.000000
   101  H    0.000000
   102  H    0.000000
   103  H    0.000000
   104  H    0.000000
   105  H    0.000000
   106  H    0.000000
   107  H    0.000000
   108  H    0.000000
   109  H    0.000000
   110  H    0.000000
   111  H    0.000000
   112  H    0.000000
   113  H    0.000000
   114  H    0.000000
   115  H    0.000000
   116  H    0.000000
   117  H    0.000000
   118  H    0.000000
   119  H    0.000000
   120  H    0.000000
   121  H    0.000000
   122  H    0.000000
   123  H    0.000000
   124  H    0.000000
   125  H    0.000000
   126  H    0.000000
   127  H    0.093533
   128  H    0.090120
   129  H    0.132868
   130  H    0.102831
   131  H    0.094280
   132  H    0.162419
   133  H    0.146631
   134  H    0.111182
   135  H    0.104223
   136  H    0.114781
   137  H    0.382229
   138  H    0.142145
   139  H    0.104829
   140  H    0.115687
   141  H    0.182815
 Sum of Mulliken charges =   0.00000
 Mulliken charges with hydrogens summed into heavy atoms:
               1
     1  C    0.000000
     2  C    0.000000
     3  C    0.000000
     4  C    0.000000
     5  C    0.000000
     6  C    0.000000
     7  C    0.000000
     8  C    0.000000
    10  C    0.000000
    11  C    0.000000
    12  O   -0.279479
    13  Si   0.000000
    14  C    0.000000
    16  C    0.000000
    17  C    0.000000
    18  C    0.000000
    19  C    0.000000
    20  C    0.000000
    21  Si   0.000000
    22  O   -0.242237
    23  C    0.000000
    24  C    0.000000
    25  P    1.164420
    26  O   -0.650190
    27  O   -0.690160
    28  C    0.000000
    29  C    0.000000
    30  C    0.000000
    31  C    0.000000
    32  C    0.000000
    33  C    0.000000
    34  C    0.000000
    35  C    0.000000
    36  C    0.000000
    37  C    0.000000
    38  C    0.000000
    39  C    0.000000
    40  C    0.000000
    41  C    0.000000
    42  C    0.000000
    43  C    0.000000
    44  C    0.000000
    45  C    0.000000
    46  C    0.000000
    47  C    0.000000
    48  C    0.000000
    49  C    0.000000
    50  C    0.000000
    51  C    0.000000
    52  C    0.000000
    53  C    0.000000
    54  C    0.000000
    55  C    0.000000
    56  C    0.000000
    57  C    0.000000
    58  C    0.000000
    59  C    0.000000
    60  C    0.000000
    61  C    0.000000
    62  C    0.000000
    63  C    0.000000
    64  C    0.002533
    65  C   -0.016846
    66  C    0.151924
    67  C    0.021649
    68  C    0.005371
    69  C    0.017114
    70  C    0.167917
    71  N   -0.223278
    72  S    1.236671
    73  O   -0.487351
    74  O   -0.558143
    75  C   -0.010733
    76  C    0.133824
    77  C    0.052507
    78  C    0.012600
    79  C    0.214208
    80  N   -0.409879
    81  N   -0.070978
    82  C    0.274905
    83  C   -0.012103
    84  C    0.044016
    85  C    0.151719
 APT charges:
               1
     1  C    0.000000
     2  C    0.000000
     3  C    0.000000
     4  C    0.000000
     5  C    0.000000
     6  C    0.000000
     7  C    0.000000
     8  C    0.000000
     9  H    0.649982
    10  C    0.000000
    11  C    0.000000
    12  O   -0.794879
    13  Si   0.000000
    14  C    0.000000
    15  H    0.551618
    16  C    0.000000
    17  C    0.000000
    18  C    0.000000
    19  C    0.000000
    20  C    0.000000
    21  Si   0.000000
    22  O   -0.619863
    23  C    0.000000
    24  C    0.000000
    25  P    0.438204
    26  O   -0.405347
    27  O   -0.576992
    28  C    0.000000
    29  C    0.000000
    30  C    0.000000
    31  C    0.000000
    32  C    0.000000
    33  C    0.000000
    34  C    0.000000
    35  C    0.000000
    36  C    0.000000
    37  C    0.000000
    38  C    0.000000
    39  C    0.000000
    40  C    0.000000
    41  C    0.000000
    42  C    0.000000
    43  C    0.000000
    44  C    0.000000
    45  C    0.000000
    46  C    0.000000
    47  C    0.000000
    48  C    0.000000
    49  C    0.000000
    50  C    0.000000
    51  C    0.000000
    52  C    0.000000
    53  C    0.000000
    54  C    0.000000
    55  C    0.000000
    56  C    0.000000
    57  C    0.000000
    58  C    0.000000
    59  C    0.000000
    60  C    0.000000
    61  C    0.000000
    62  C    0.000000
    63  C    0.000000
    64  C   -0.252983
    65  C   -0.392753
    66  C   -0.712696
    67  C   -0.647973
    68  C   -0.512700
    69  C   -0.365517
    70  C   -0.860305
    71  N   -0.221785
    72  S   -0.210657
    73  O    0.706990
    74  O   -0.359044
    75  C   -0.112996
    76  C   -0.580019
    77  C   -0.463171
    78  C   -0.416322
    79  C   -0.364701
    80  N   -0.120053
    81  N   -0.710848
    82  C   -0.293468
    83  C   -0.185198
    84  C   -0.651314
    85  C   -0.464863
    86  H    0.000000
    87  H    0.000000
    88  H    0.000000
    89  H    0.000000
    90  H    0.000000
    91  H    0.000000
    92  H    0.000000
    93  H    0.000000
    94  H    0.000000
    95  H    0.000000
    96  H   -0.022105
    97  H    0.000000
    98  H    0.000000
    99  H    0.000000
   100  H    0.000000
   101  H    0.000000
   102  H    0.000000
   103  H    0.000000
   104  H    0.000000
   105  H    0.000000
   106  H    0.000000
   107  H    0.000000
   108  H    0.000000
   109  H    0.000000
   110  H    0.000000
   111  H    0.000000
   112  H    0.000000
   113  H    0.000000
   114  H    0.000000
   115  H    0.000000
   116  H    0.000000
   117  H    0.000000
   118  H    0.000000
   119  H    0.000000
   120  H    0.000000
   121  H    0.000000
   122  H    0.000000
   123  H    0.000000
   124  H    0.000000
   125  H    0.000000
   126  H    0.000000
   127  H    1.375630
   128  H    0.790848
   129  H   -0.313699
   130  H    0.253682
   131  H    1.088270
   132  H    0.929406
   133  H    0.144559
   134  H    0.340352
   135  H    0.713397
   136  H    0.873052
   137  H   -0.017556
   138  H    0.421947
   139  H    1.273515
   140  H    1.010484
   141  H    0.087871
 Sum of APT charges =   0.00000
 APT charges with hydrogens summed into heavy atoms:
               1
     1  C    0.000000
     2  C    0.000000
     3  C    0.000000
     4  C    0.000000
     5  C    0.000000
     6  C    0.000000
     7  C    0.000000
     8  C    0.000000
    10  C    0.000000
    11  C    0.000000
    12  O   -0.144896
    13  Si   0.000000
    14  C    0.000000
    16  C    0.000000
    17  C    0.000000
    18  C    0.000000
    19  C    0.000000
    20  C    0.000000
    21  Si   0.000000
    22  O   -0.068245
    23  C    0.000000
    24  C    0.000000
    25  P    0.438204
    26  O   -0.405347
    27  O   -0.576992
    28  C    0.000000
    29  C    0.000000
    30  C    0.000000
    31  C    0.000000
    32  C    0.000000
    33  C    0.000000
    34  C    0.000000
    35  C    0.000000
    36  C    0.000000
    37  C    0.000000
    38  C    0.000000
    39  C    0.000000
    40  C    0.000000
    41  C    0.000000
    42  C    0.000000
    43  C    0.000000
    44  C    0.000000
    45  C    0.000000
    46  C    0.000000
    47  C    0.000000
    48  C    0.000000
    49  C    0.000000
    50  C    0.000000
    51  C    0.000000
    52  C    0.000000
    53  C    0.000000
    54  C    0.000000
    55  C    0.000000
    56  C    0.000000
    57  C    0.000000
    58  C    0.000000
    59  C    0.000000
    60  C    0.000000
    61  C    0.000000
    62  C    0.000000
    63  C    0.000000
    64  C    1.122647
    65  C    0.398095
    66  C   -0.712696
    67  C   -0.961673
    68  C   -0.259018
    69  C    0.722753
    70  C    0.069101
    71  N   -0.243890
    72  S   -0.210657
    73  O    0.706990
    74  O   -0.359044
    75  C   -0.112996
    76  C   -0.435460
    77  C   -0.122820
    78  C    0.297075
    79  C    0.508351
    80  N   -0.120053
    81  N   -0.728403
    82  C    0.128479
    83  C    1.088317
    84  C    0.359169
    85  C   -0.376992
 Electronic spatial extent (au):  <R**2>=          15987.7248
 Charge=              0.0000 electrons
 Dipole moment (field-independent basis, Debye):
    X=             -1.0476    Y=             -0.9814    Z=             -1.9252  Tot=              2.4014
 Quadrupole moment (field-independent basis, Debye-Ang):
   XX=           -166.7323   YY=           -131.4485   ZZ=           -175.6097
   XY=             -6.7893   XZ=             -3.8691   YZ=            -37.5418
 Traceless Quadrupole moment (field-independent basis, Debye-Ang):
   XX=             -8.8021   YY=             26.4817   ZZ=            -17.6796
   XY=             -6.7893   XZ=             -3.8691   YZ=            -37.5418
 Octapole moment (field-independent basis, Debye-Ang**2):
  XXX=           -186.1441  YYY=          -1118.2909  ZZZ=           -516.3426  XYY=            -90.0775
  XXY=           -461.1413  XXZ=           -177.1853  XZZ=            -57.7920  YZZ=           -535.0163
  YYZ=           -277.3491  XYZ=            -41.6914
 Hexadecapole moment (field-independent basis, Debye-Ang**3):
 XXXX=          -2234.0376 YYYY=         -11113.6298 ZZZZ=          -6483.4319 XXXY=           -596.8041
 XXXZ=           -289.7254 YYYX=           -675.7264 YYYZ=           -655.9498 ZZZX=           -262.5612
 ZZZY=           -685.9420 XXYY=          -2458.8968 XXZZ=          -1361.7058 YYZZ=          -3376.3858
 XXYZ=           -204.4373 YYXZ=           -240.8730 ZZXY=           -277.7954
 N-N= 3.060132075665D+03 E-N=-1.076090178475D+04  KE= 1.961447616203D+03
  Exact polarizability:   0.000   0.000   0.000   0.000   0.000   0.000
 Approx polarizability: 382.530 -22.830 434.476  29.830 -43.992 390.777
 Calling FoFJK, ICntrl=    100147 FMM=F ISym2X=0 I1Cent= 0 IOpClX= 0 NMat=1 NMatS=1 NMatT=0.
 ***** Axes restored to original set *****
 Cartesian Forces:  Max     0.023756319 RMS     0.002706633
 SvSCFP is copying densities from files   528 and   530 to   603.
 ONIOM: saving gridpoint  2
 ONIOM: restoring gridpoint 17
 ONIOM: generating point  1 -- low level on model system.
 Generating MM parameters for model system.
 I=   25 IAn= 15 Valence= 6.
          JB=  1 J=   12 IAn=  8 IBT= 1 Dist= 1.67D+00
          JB=  2 J=   22 IAn=  8 IBT= 1 Dist= 1.64D+00
          JB=  3 J=   26 IAn=  8 IBT= 2 Dist= 1.51D+00
          JB=  4 J=   27 IAn=  8 IBT= 2 Dist= 1.52D+00
 I=   72 IAn= 16 Valence= 6.
          JB=  1 J=   71 IAn=  7 IBT= 1 Dist= 1.71D+00
          JB=  2 J=   73 IAn=  8 IBT= 2 Dist= 1.46D+00
          JB=  3 J=   74 IAn=  8 IBT= 2 Dist= 1.47D+00
          JB=  4 J=   75 IAn=  6 IBT= 1 Dist= 1.82D+00
 I=   83 IAn=  6 Valence= 5.
          JB=  1 J=   82 IAn=  6 IBT=12 Dist= 1.42D+00
          JB=  2 J=   84 IAn=  6 IBT= 2 Dist= 1.38D+00
          JB=  3 J=  139 IAn=  1 IBT= 1 Dist= 1.08D+00
 I=   84 IAn=  6 Valence= 5.
          JB=  1 J=   83 IAn=  6 IBT= 2 Dist= 1.38D+00
          JB=  2 J=   85 IAn=  6 IBT=12 Dist= 1.43D+00
          JB=  3 J=  140 IAn=  1 IBT= 1 Dist= 1.08D+00
 Include all MM classes

 MM sanity checks:
 All charges sum to:                0.00000000
 Charges of atoms sum to:           0.00000000
 MMInit generated parameter data with length LenPar=        7373.
 Standard basis: Dummy (5D, 7F)
 There are    45 symmetry adapted cartesian basis functions of A   symmetry.
 There are    45 symmetry adapted basis functions of A   symmetry.
    45 basis functions,    45 primitive gaussians,    45 cartesian basis functions
    34 alpha electrons       34 beta electrons
       nuclear repulsion energy       298.0722536950 Hartrees.
 NAtoms=  141 NActive=   45 NUniq=   45 SFac= 1.00D+00 NAtFMM=   60 NAOKFM=F Big=F
 Integral buffers will be    131072 words long.
 Raffenetti 1 integral format.
 Two-electron integral symmetry is turned on.
 Compact hessian requested for MM, so only forces done here.
 UFF calculation of energy and first derivatives.
 Energy=     107.807499     NIter=   0.
 Dipole moment=       0.000000       0.000000       0.000000
 ***** Axes restored to original set *****
 Cartesian Forces:  Max   320.170057048 RMS    30.659909422
 ONIOM: saving gridpoint  1
 ONIOM: restoring gridpoint  3
 ONIOM: calculating energy.
 ONIOM: gridpoint  1 method:  low   system:  model energy:   107.807498536428
 ONIOM: gridpoint  2 method:  high  system:  model energy: -1975.689771546568
 ONIOM: gridpoint  3 method:  low   system:  real  energy:   107.943728816436
 ONIOM: extrapolated energy =   -1975.553541266560
 ONIOM: calculating first derivatives.
 ONIOM: calculating second derivatives.
 ONIOM: calculating electric field derivatives.
 ONIOM: Integrating ONIOM file  4 number   619
 ONIOM: Dipole        =-4.12173575D-01-3.86101236D-01-7.57418811D-01
 ONIOM: Polarizability= 0.00000000D+00 0.00000000D+00 0.00000000D+00
                        0.00000000D+00 0.00000000D+00 0.00000000D+00
 ONIOM: Dipole moment (Debye):
    X=    -1.0476    Y=    -0.9814    Z=    -1.9252  Tot=     2.4014
 ONIOM: Integrating ONIOM file  5 number   695
 Rotating derivatives to standard orientation.
 ***** Axes restored to original set *****
 -------------------------------------------------------------------
 Center     Atomic                   Forces (Hartrees/Bohr)
 Number     Number              X              Y              Z
 -------------------------------------------------------------------
      1        6           0.000011735    0.000004028    0.000006492
      2        6          -0.000026141   -0.000005065    0.000005526
      3        6          -0.000029319    0.000007225   -0.000005400
      4        6           0.000032956    0.000001404    0.000014575
      5        6           0.000006063    0.000012762   -0.000013077
      6        6          -0.000034525    0.000006639   -0.000006528
      7        6          -0.000007367    0.000010129    0.000003028
      8        6           0.000021661   -0.000006274    0.000003439
      9        6          -0.000030546    0.000025299   -0.000020244
     10        6           0.000007925   -0.000005723    0.000009556
     11        6          -0.000013357   -0.000017551   -0.000006941
     12        8           0.000030344   -0.000011177   -0.000006193
     13       14           0.000007828    0.000001657    0.000002884
     14        6          -0.000011702    0.000002364    0.000002974
     15        6          -0.000043443   -0.000008192   -0.000001534
     16        6           0.000023621    0.000007887   -0.000008040
     17        6           0.000013070   -0.000004730    0.000010085
     18        6          -0.000002296   -0.000019268    0.000002951
     19        6          -0.000024618   -0.000012613    0.000006796
     20        6          -0.000016912    0.000008311   -0.000015673
     21       14           0.000007173   -0.000003984   -0.000001638
     22        8           0.000030974    0.000005979    0.000006106
     23        6          -0.000024343   -0.000001588   -0.000003858
     24        6           0.000026106    0.000004409   -0.000003404
     25       15           0.000017826   -0.000002124   -0.000001116
     26        8           0.000026240   -0.000003182   -0.000000973
     27        8           0.000010659    0.000001387    0.000003330
     28        6          -0.000001112   -0.000000383    0.000001647
     29        6           0.000003361    0.000004959    0.000002199
     30        6          -0.000000939    0.000002321    0.000002653
     31        6          -0.000002565    0.000000539   -0.000003691
     32        6           0.000005804   -0.000001940   -0.000001511
     33        6           0.000000647   -0.000001338   -0.000001894
[...]
 00000001,-0.00000002,0.,0.,-0.00000005,0.00000004,-0.00000003,-0.00000
 005,0.,0.,0.,0.,0.,0.,0.,0.,0.,0.,0.,0.,-0.00000001,0.00000002,0.,-0.0
 0000003,0.00000005,0.00000003,-0.00001873,0.00006008,-0.00001654,-0.00
 001334,-0.00019922,-0.00018183,-0.00000153,0.00002245,0.00009343,0.000
 00023,0.00004123,-0.00000116,-0.00000892,0.00002519,0.00000500,0.00000
 864,-0.00000424,0.00001001,-0.00044164,-0.00019112,-0.00015461,0.00028
 650,-0.00016192,0.00018752,-0.00030217,0.00013922,-0.00004315,0.000061
 15,-0.00003664,0.00001592,0.00020216,-0.00015633,0.00004337,0.00002207
 ,0.00003399,-0.00002210,0.00000765,-0.00002349,0.00000995,-0.00000450,
 0.00000921,-0.00000318,0.00001165,-0.00000237,0.00000445,-0.00001298,-
 0.00000837,0.00000193,0.00001845,-0.00003027,0.00000598,-0.00155666,0.
 00411716,-0.00022404,-0.00003539,0.00056566,-0.00613812,0.00673558,-0.
 02152714,-0.00803973,0.04266461,-0.14166995,-0.19978382,-0.00124013,0.
 00621578,0.00989317,0.,0.,0.,0.,0.,0.,0.,0.,0.,0.,0.,0.,0.,0.,0.,0.,0.
 ,0.,0.,0.,0.,0.,0.,0.,0.,0.,0.,0.,0.,0.,-0.00003601,0.00011522,0.00004
 126,0.,0.00000003,0.,0.00000020,0.00000025,0.00000001,0.,0.,0.,0.,0.,0
 .,0.00000025,0.00000056,-0.00000101,0.,-0.00000001,0.,0.,0.,0.,0.,0.,0
 .,0.,0.,0.,0.,0.,0.,0.,0.,0.,-0.00000003,0.00000003,0.,0.,0.00000004,0
 .00000003,0.00000003,0.00000010,0.00000014,0.00000034,0.00000032,0.000
 00036,0.,0.,0.,0.,0.,0.,0.,0.,0.,-0.00000385,-0.00000617,0.00000172,-0
 .00000013,-0.00000028,0.00000019,0.,-0.00000003,0.,0.,0.,0.,0.,0.,-0.0
 0000001,0.00000003,-0.00000002,0.,0.,0.,0.,0.,0.,0.,0.,0.,0.,0.,0.,0.,
 0.,0.,0.,-0.00000002,0.00000002,0.00000002,0.00001169,0.00000725,-0.00
 001368,0.00006485,0.00007865,0.00012617,0.00000035,0.00000686,0.000013
 66,-0.00000592,0.00000413,-0.00000329,-0.00000168,0.00000550,0.0000089
 6,-0.00002328,0.00007829,0.00016230,0.00000331,0.00001182,0.00000501,-
 0.00000091,-0.00000408,0.00000115,0.00000060,-0.00000298,0.00000076,0.
 00000298,-0.00000339,0.00000239,0.00016343,-0.00036476,0.00059279,0.00
 027991,-0.00132468,0.00008673,-0.00016733,0.00050131,0.00091611,-0.046
 87638,0.15401762,0.20253772,0.,-0.00000001,0.,-0.00000003,-0.00000001,
 0.,0.,0.,0.,-0.00000002,0.00000002,0.,-0.00000012,-0.00000013,-0.00000
 002,0.,0.,0.,-0.00000003,0.00000012,0.00000003,0.,0.,0.,0.00003889,-0.
 00002521,0.00002145,-0.00000002,-0.00000030,-0.00000003,-0.00000018,0.
 00000054,0.00000015,-0.00038314,-0.00011629,-0.00017983,0.00000225,0.0
 0000781,0.00000304,0.,-0.00000013,0.,-0.00001534,0.00006358,0.00002714
 ,0.00000003,-0.00000009,0.00000001,-0.00000002,-0.00000004,0.,0.000000
 06,-0.00000011,0.,0.,-0.00000003,0.,0.00000015,-0.00000027,-0.00000006
 ,0.00000042,-0.00000043,-0.00000021,-0.00012364,-0.00015643,-0.0003269
 8,0.,-0.00000002,0.,0.,-0.00000002,0.,0.00113066,0.00054147,0.00166993
 ,-0.00054448,0.00057815,-0.00057173,-0.00030473,-0.00121866,-0.0010707
 4,0.00000075,0.00000312,0.00000316,0.00000031,0.00000048,0.00000019,0.
 00000433,0.00001211,-0.00000014,0.00000055,-0.00000031,-0.00000016,0.0
 0000003,-0.00000003,-0.00000001,0.00000009,-0.00000012,-0.00000011,-0.
 00000037,0.00000076,0.00000089,0.00000292,0.00000272,0.00000499,0.0000
 0031,0.00000034,0.00000007,0.00000008,0.00000013,0.00000008,-0.0009256
 2,-0.00084452,0.00005198,0.00000124,0.00000402,-0.00000128,0.00000035,
 -0.00000012,-0.00000014,0.00000141,-0.00000076,-0.00000004,0.00000002,
 -0.00000002,0.,0.00000001,-0.00000001,0.,0.00000002,-0.00000004,-0.000
 00004,0.00000020,-0.00000022,-0.00000030,-0.00000027,0.00000021,0.0000
 0043,-0.00000012,0.00000022,0.00000082,0.00000086,0.00000062,0.0000026
 5,0.00000008,0.00000008,0.00000002,0.00000004,0.00000004,0.00000002,0.
 00000003,0.00000004,0.00000003,-0.00101455,-0.00060522,0.00070626,0.00
 000372,0.00000730,-0.00000955,0.00000122,0.00000349,-0.00000253,0.0000
 0047,-0.00000005,-0.00000013,0.00000102,-0.00000006,-0.00000007,0.0000
 0199,-0.00000053,0.00000016,0.,0.,0.,0.,0.,0.,0.,0.,0.,0.,-0.00000002,
 -0.00000003,0.,-0.00000003,-0.00000005,0.00000006,-0.00000010,-0.00000
 018,0.00002977,0.00007014,-0.00032643,0.00034874,-0.00071521,0.0004010
 7,0.00033576,0.00061332,-0.00223613,-0.00019144,0.00026410,0.00056191,
 0.00009675,0.00018553,-0.00020441,-0.00010409,-0.00003084,0.00002674,-
 0.02244051,-0.00722806,0.00328632,0.00420412,-0.00251648,0.00338269,-0
 .00336444,0.00097016,-0.00520783,0.00034347,0.00018048,0.00063405,0.00
 017831,-0.00056540,0.00235650,-0.00009257,0.00042835,-0.00009077,0.000
 12375,-0.00028440,0.00012936,-0.00007062,0.00012185,-0.00005062,0.0001
 3968,-0.00002072,0.00004963,-0.00011723,-0.00013348,-0.00003110,0.0000
 4788,-0.00017142,0.00009479,-0.00406658,-0.00065465,-0.00877979,0.0030
 1945,-0.00463638,0.00316244,-0.00053367,0.00571311,0.00368839,0.001042
 18,0.00860067,-0.01609697,-0.03647907,-0.03942943,0.08252415,0.,0.,0.,
 0.,0.,0.,0.,0.,0.,0.,0.00000003,0.,0.,0.,0.,0.,0.,0.,0.00000001,-0.000
 00002,0.,0.,0.,0.,0.,0.,0.,0.,0.,0.,-0.00111280,0.00184035,0.00078408,
 -0.00000009,0.00000007,0.00000006,0.00000171,0.00000087,0.00000149,0.0
 0000017,0.00000017,0.,0.00000001,0.00000003,0.00000002,-0.00058056,-0.
 00036837,-0.00021985,0.00000006,0.00000029,-0.00000007,0.00000004,-0.0
 0000002,-0.00000002,0.00000036,-0.00000029,0.00000004,0.00000001,0.,0.
 ,0.,0.,0.,0.,0.,0.,0.00000019,-0.00000013,-0.00000022,-0.00000004,0.,0
 .00000001,-0.00000003,0.00000001,0.00000008,0.00000024,0.00000001,0.00
 000051,0.00000002,0.00000001,0.,0.,0.,0.,0.,0.,0.,-0.00060823,-0.00004
 616,0.00044923,0.00000084,0.00000101,-0.00000242,0.00000005,0.00000024
 ,-0.00000020,0.00000006,0.,-0.00000002,0.00000022,0.00000003,0.,0.0000
 0072,-0.00000017,0.00000021,0.,0.,0.,0.,0.,0.,0.,0.,0.,0.,0.,0.,0.,0.,
 0.,0.00000002,-0.00000002,-0.00000007,0.00002034,0.00002951,-0.0000410
 3,0.00010104,0.00003427,0.00010580,0.00000709,-0.00000716,0.00010116,0
 .00002767,-0.00000008,-0.00002686,0.00004998,0.00001110,0.00001123,0.0
 0137370,0.00003027,0.00030438,0.00013199,0.00007084,0.00001647,0.00000
 122,-0.00005376,0.00000817,0.00000476,-0.00002471,0.00000973,0.0000256
 8,-0.00003059,0.00001468,-0.00021240,-0.00122145,-0.00003084,0.0011621
 4,0.00029746,-0.00044843,0.00016636,0.00010191,-0.00082215,-0.00114649
 ,-0.00056241,0.00028208,0.06025237,-0.00000001,0.00000006,0.00000001,-
 0.00000001,0.00000021,0.00000005,0.,0.00000002,0.,0.00000002,0.0000001
 6,0.00000004,-0.00000013,0.00000090,0.00000017,0.,0.00000004,0.0000000
 1,0.00000012,0.00000038,0.00000012,0.,0.00000002,0.,-0.00001894,-0.000
 00711,0.00001209,-0.00000030,0.00000072,0.00000007,0.00000054,0.000001
 84,0.00000059,-0.00020224,0.00009076,0.00008947,0.00000781,0.00000980,
 0.00000485,-0.00000013,0.00000029,-0.00000002,0.00001545,-0.00000489,-
 0.00000271,-0.00000009,0.00000012,-0.00000002,-0.00000004,0.00000016,-
 0.00000003,-0.00000011,0.00000011,0.,-0.00000003,0.00000004,-0.0000000
 1,-0.00000027,0.00000026,0.00000007,-0.00000043,0.00000023,0.00000017,
 -0.00009524,0.00004395,0.00005593,-0.00000002,0.00000006,-0.00000002,-
 0.00000002,0.00000003,-0.00000001,0.00055318,-0.00018412,-0.00037895,-
 0.00012545,-0.00010829,0.00017022,-0.00039822,-0.00025241,-0.00000412,
 0.00000312,0.00000279,0.00000435,0.00000048,0.00000038,0.00000021,0.00
 001211,0.00001125,-0.00000018,-0.00000031,0.00000004,0.00000008,-0.000
 00003,0.00000001,0.,-0.00000012,0.00000007,0.00000010,0.00000076,0.000
 00135,0.00000236,0.00000272,0.00000001,0.00000299,0.00000034,0.0000002
 0,0.00000006,0.00000013,0.00000010,0.00000009,-0.00084452,-0.00061777,
 0.00004336,0.00000402,0.00000508,-0.00000203,-0.00000012,-0.00000003,0
 .00000004,-0.00000076,0.00000009,0.00000002,-0.00000002,0.,0.,-0.00000
 001,0.00000001,0.,-0.00000004,0.00000003,0.00000004,-0.00000022,0.0000
 0006,0.00000022,0.00000021,0.00000017,0.00000106,0.00000022,-0.0000002
 0,0.00000068,0.00000062,-0.00000057,0.00000099,0.00000008,0.00000004,0
 .00000001,0.00000004,0.00000002,0.00000001,0.00000004,0.00000003,0.000
 00002,-0.00060522,-0.00023228,0.00038448,0.00000730,0.00000091,-0.0000
 0789,0.00000349,0.00000344,-0.00000346,-0.00000005,-0.00000007,0.00000
 001,-0.00000006,-0.00000015,0.,-0.00000053,-0.00000019,-0.00000004,0.,
 0.,0.,0.,0.,0.,0.,0.,0.,-0.00000002,0.00000002,0.00000003,-0.00000003,
 0.00000002,0.00000005,-0.00000010,0.00000002,0.00000014,0.00001486,-0.
 00001115,-0.00009294,0.00002830,-0.00007078,0.00002515,0.00003984,-0.0
 0000242,-0.00015909,0.00004359,0.00006499,0.00001253,-0.00000587,0.000
 00019,0.00001351,-0.00000025,0.00002710,0.00000036,-0.00384103,-0.0005
 4079,0.00048303,0.00266788,-0.00089393,0.00196633,0.00241395,0.0007098
 9,-0.00131651,-0.00057135,-0.00021364,0.00021030,-0.00096628,-0.001498
 59,0.00085186,0.00002628,0.00008001,-0.00003531,0.00023333,-0.00008995
 ,0.00010689,-0.00009445,-0.00000757,-0.00005304,0.00001969,0.00000390,
 0.00000836,-0.00001760,-0.00001560,0.00000495,-0.00004774,-0.00005876,
 0.00000282,0.00499134,0.01581817,-0.02017815,0.00094664,-0.00568995,-0
 .00352435,0.00244140,-0.00348166,0.00271332,-0.01088220,-0.00357681,0.
 01838814,-0.03642829,-0.14342158,0.13484629,0.,0.00000002,0.,0.,0.,0.,
 0.,0.,0.,0.00000003,0.00000005,0.00000002,0.,0.,0.,0.,0.00000006,-0.00
 000001,-0.00000002,0.00000001,0.,0.,0.,0.,0.,0.00000001,0.,0.,0.,0.,0.
 00021192,0.00085108,0.00034860,0.00000007,0.00000033,0.00000038,0.0000
 0087,-0.00000011,0.00000060,0.00000017,0.00000009,0.,0.00000003,0.0000
 0003,0.00000003,-0.00036837,-0.00017758,-0.00013034,0.00000029,0.00000
 047,-0.00000014,-0.00000002,0.,0.,-0.00000029,0.00000011,-0.00000003,0
 .,0.,0.,0.,0.,0.,0.,0.,0.,-0.00000013,0.,0.00000011,0.,0.00000002,0.00
 000013,0.00000001,-0.00000004,0.00000004,0.00000001,-0.00000014,0.0000
 0002,0.00000001,0.,0.,0.,0.,0.,0.,0.,0.,-0.00004616,0.00004031,0.00003
 182,0.00000101,-0.00000015,-0.00000151,0.00000024,0.00000027,-0.000000
 31,0.,0.,0.,0.00000003,-0.00000003,0.,-0.00000017,-0.00000008,-0.00000
 004,0.,0.,0.,0.,0.,0.,0.,0.,0.,0.,0.,0.,0.,0.,0.,-0.00000002,0.,0.0000
 0004,0.00000676,0.00001082,-0.00000571,0.00002906,0.00000222,0.0000337
 7,0.00000586,0.00002506,0.00000054,0.00000309,0.00000212,-0.00001325,0
 .00000701,0.00000333,0.00000056,-0.00012328,-0.00018820,0.00006968,-0.
 00000456,-0.00014744,0.00016305,0.00000541,-0.00001574,0.00000504,-0.0
 0001240,0.00000270,-0.00000208,-0.00000222,-0.00000220,0.00000017,-0.0
 0019987,0.00041401,0.00047164,-0.00113967,0.00063470,-0.00068979,0.001
 06761,0.00065783,0.00107897,0.00034810,0.00032725,-0.00049441,0.040878
 67,0.14165945,0.,0.00000001,0.,0.,0.00000005,-0.00000002,0.,0.,0.,0.,0
 .00000004,-0.00000001,-0.00000002,0.00000017,-0.00000011,0.,0.00000001
 ,0.,0.00000003,0.00000012,-0.00000003,0.,0.,0.,-0.00000217,-0.00002873
 ,0.00003656,-0.00000003,0.00000007,-0.00000011,0.00000015,0.00000059,-
 0.00000015,-0.00004578,0.00021897,-0.00026198,0.00000304,0.00000485,-0
 .00000076,0.,-0.00000002,-0.00000005,-0.00000260,0.00000644,0.00002092
 ,0.00000001,-0.00000002,-0.00000002,0.,-0.00000003,-0.00000002,0.,0.,-
 0.00000003,0.,-0.00000001,0.,-0.00000006,0.00000007,-0.00000006,-0.000
 00021,0.00000017,-0.00000004,-0.00012403,0.00014961,-0.00007930,0.,-0.
 00000002,0.,0.,-0.00000001,0.,0.00065180,-0.00080254,0.00069415,-0.000
 35715,0.00053171,-0.00012785,-0.00032851,0.00001132,-0.00051963,0.0000
 0316,0.00000435,0.00000290,0.00000019,0.00000021,-0.00000005,-0.000000
 14,-0.00000018,-0.00000481,-0.00000016,0.00000008,-0.00000007,-0.00000
 001,0.,0.,-0.00000011,0.00000010,0.00000004,0.00000089,0.00000236,0.00
 000210,0.00000499,0.00000299,0.00000389,0.00000007,0.00000006,-0.00000
 008,0.00000008,0.00000009,0.00000001,0.00005198,0.00004336,0.00008407,
 -0.00000128,-0.00000203,-0.00000065,-0.00000014,0.00000004,-0.00000002
 ,-0.00000004,0.00000002,-0.00000026,0.,0.,0.,0.,0.,0.,-0.00000004,0.00
 000004,0.00000002,-0.00000030,0.00000022,0.00000021,0.00000043,0.00000
 106,0.00000179,0.00000082,0.00000068,0.00000216,0.00000265,0.00000099,
 0.00000339,0.00000002,0.00000001,-0.00000002,0.00000002,0.00000001,0.,
 0.00000003,0.00000002,0.,0.00070626,0.00038448,-0.00035148,-0.00000955
 ,-0.00000789,0.00000521,-0.00000253,-0.00000346,0.00000116,-0.00000013
 ,0.00000001,-0.00000004,-0.00000007,0.,-0.00000014,0.00000016,-0.00000
 004,-0.00000030,0.,0.,0.,0.,0.,0.,0.,0.,0.,-0.00000003,0.00000003,0.00
 000003,-0.00000005,0.00000005,0.00000006,-0.00000018,0.00000014,0.0000
 0021,0.00006317,0.00007656,-0.00009982,-0.00000762,-0.00016858,0.00013
 843,-0.00029865,0.00015636,-0.00067884,-0.00000060,0.00004107,0.000054
 84,0.00001745,-0.00005859,0.00000278,-0.00007438,0.00004213,0.00004337
 ,-0.00078320,-0.00177510,0.00216591,-0.00132571,0.00066725,-0.00307203
 ,-0.01149872,0.00153116,0.00269463,0.00213067,0.00034830,-0.00026183,0
 .00560852,-0.00060327,-0.00083560,0.00070455,0.00035821,-0.00045039,-0
 .00000363,-0.00023599,0.00005243,-0.00002393,0.00013007,0.00000821,0.0
 0015210,-0.00003455,0.00006289,-0.00012317,-0.00014980,0.00010726,0.00
 025402,-0.00040038,0.00000834,0.00372647,0.01444129,-0.02126998,0.0028
 0987,-0.00632047,-0.00088563,0.00161261,0.00089359,0.00321132,-0.00255
 916,0.00158283,0.00097936,0.06796163,0.12403886,-0.24107461,0.,0.,0.,0
 .,0.,0.,0.,0.,0.,0.,0.00000002,0.,0.,0.,0.,0.,-0.00000001,0.,0.,0.,0.,
 0.,0.,0.,0.,0.,0.,0.,0.,0.,0.00045846,0.00038788,0.00020218,0.00000006
 ,0.00000038,0.00000024,0.00000149,0.00000060,0.00000057,0.,0.,-0.00000
 004,0.00000002,0.00000003,0.00000001,-0.00021985,-0.00013034,-0.000036
 98,-0.00000007,-0.00000014,-0.00000006,-0.00000002,0.,0.,0.00000004,-0
 .00000003,-0.00000008,0.,0.,0.,0.,0.,0.,0.,0.,0.,-0.00000022,0.0000001
 1,0.00000012,0.00000001,0.00000013,0.00000022,0.00000008,0.00000004,0.
 00000029,0.00000051,0.00000002,0.00000056,0.,0.,0.,0.,0.,0.,0.,0.,0.,0
 .00044923,0.00003182,-0.00026603,-0.00000242,-0.00000151,0.00000286,-0
 .00000020,-0.00000031,0.00000016,-0.00000002,0.,0.,0.,0.,-0.00000003,0
 .00000021,-0.00000004,-0.00000006,0.,0.,0.,0.,0.,0.,0.,0.,0.,0.,0.,0.,
 0.,0.,0.00000001,-0.00000007,0.00000004,0.00000010,0.00001095,-0.00000
 422,-0.00000294,0.00005296,0.00003186,0.00004595,0.00001895,-0.0000100
 3,0.00002699,0.00000100,0.00000652,0.00000363,0.00000725,0.00000202,0.
 00001350,-0.00010563,-0.00018378,0.00034570,0.00004610,0.00020086,0.00
 006896,-0.00001151,-0.00004401,0.00001894,0.00001461,-0.00003108,-0.00
 000252,0.00002800,-0.00004053,0.00002829,-0.00049715,-0.00067451,-0.00
 007689,-0.00069675,0.00054827,-0.00053145,0.00049430,0.00025228,0.0003
 3740,-0.00084370,0.00009391,-0.00014893,-0.06810044,-0.13551786,0.2595
 5755\\0.00002189,-0.00000370,0.,-0.00001031,-0.00001546,-0.00001273,-0
 .00000853,-0.00000485,-0.00000156,0.00002051,-0.00000120,-0.00000228,0
 .00001466,0.00000199,0.00000765,-0.00001042,0.00000342,-0.00000146,0.0
 0000122,-0.00000881,-0.00000303,0.00001893,-0.00000373,0.00000258,-0.0
 0004082,0.00000244,0.00001052,0.00001897,-0.00001491,-0.00000527,0.000
 00898,-0.00000758,-0.00000447,-0.00001221,0.00000510,0.00000688,0.0000
 0026,-0.00000626,-0.00000267,0.00000016,0.00000569,-0.00001387,-0.0000
 3336,-0.00001739,0.00001236,0.00000637,0.00000617,-0.00000690,0.000012
 97,0.00000425,0.00000120,0.00000913,0.00000884,0.00001476,-0.00000934,
 -0.00000448,0.00000793,0.00001340,0.00000189,-0.00000621,0.00000770,0.
 00000622,-0.00000188,-0.00002035,-0.00000037,-0.00000220,-0.00001176,0
 .00000212,-0.00000681,0.00001361,0.00000352,0.00000053,-0.00001732,0.0
 0000253,0.00000254,-0.00001834,0.00000609,0.00000474,-0.00000857,-0.00
 000105,-0.00000081,0.00000094,-0.00000036,-0.00000129,-0.00000157,-0.0
 0000442,-0.00000138,0.00000094,0.00000079,-0.00000220,0.00000272,0.000
 00138,0.00000199,-0.00000236,0.00000186,0.00000074,0.00000007,0.000001
 25,0.00000117,-0.00000046,-0.00000377,-0.00000318,0.00000244,-0.000000
 97,-0.00000017,0.00000158,-0.00000460,-0.00000014,0.00000244,-0.000004
 46,-0.00000274,0.00000448,0.00000065,-0.00000228,-0.00000251,-0.000000
 97,-0.00000155,0.00000190,0.00000358,0.00000308,0.00000334,0.00000221,
 0.00000033,0.00000016,-0.00000230,-0.00000029,-0.00000026,0.00000228,-
 0.00000231,-0.00000014,0.00000026,0.00000197,0.00000014,0.00000474,0.0
 0000407,0.00000007,-0.00000508,-0.00000323,-0.00001013,-0.00001062,-0.
 00000900,-0.00000111,-0.00000559,-0.00000298,0.00000349,0.00000194,-0.
 00000288,0.00000284,0.00000494,-0.00000401,0.00000310,0.00000328,-0.00
 000325,0.00000609,0.00000054,-0.00000155,-0.00000129,0.00000148,-0.000
 00222,-0.00000475,0.00000078,-0.00000118,-0.00000394,0.00000760,0.0000
 0224,-0.00000388,0.00000534,0.00000288,0.00000289,0.00000115,0.0000025
 7,0.00000326,-0.00000576,0.00000239,0.00000082,-0.00000623,0.00000179,
 -0.00000041,-0.00000237,-0.00000137,-0.00000274,-0.00000102,0.00000411
 ,-0.00000146,-0.00000067,0.00000290,-0.00000112,-0.00000075,0.00000268
 ,-0.00000031,-0.00000521,-0.00000738,0.00000250,-0.00000197,-0.0000045
 3,-0.00000224,-0.00000286,-0.00000219,-0.00000671,-0.00000389,-0.00000
 535,-0.00000975,-0.00000564,-0.00000944,-0.00000642,-0.00000674,-0.000
 00997,0.00001154,-0.00000379,0.00000563,-0.00000369,0.00000199,-0.0000
 0832,0.00000975,0.00000248,-0.00000019,0.00001497,-0.00000091,-0.00000
 311,0.00000980,0.00000586,0.00000707,0.00000507,0.00000040,-0.00000130
 ,0.00000130,0.00000378,0.00000314,-0.00000123,0.00000269,0.00000227,-0
 .00000028,-0.00000136,-0.00000295,0.00000374,-0.00000394,-0.00000692,0
 .00000600,-0.00000319,-0.00000610,-0.00001345,0.00000537,0.00001155,-0
 .00000880,0.00000949,0.00000887,-0.00000135,0.00000636,0.00000923,0.00
 000242,0.00000392,0.00000772,-0.00000407,0.00000525,0.00000242,0.00001
 092,-0.00001489,-0.00000014,-0.00000141,-0.00001329,-0.00000201,0.0000
 1519,0.00001625,0.00000306,0.00000500,0.00000021,0.00000049,-0.0000081
 0,0.00000687,-0.00000216,0.00000691,0.00000929,-0.00001271,0.00000286,
 0.00000048,0.00000975,0.00000989,-0.00000881,0.00002128,-0.00000609,0.
 00000556,-0.00000979,-0.00001213,-0.00000812,0.00000941,-0.00000154,0.
 00000526,-0.00000190,0.00000045,-0.00000482,-0.00000649,0.00000277,-0.
 00000545,-0.00000034,0.00000546,-0.00000169,-0.00000178,0.00000391,-0.
 00000156,-0.00000392,0.00000602,0.00000311,-0.00000240,-0.00001084,-0.
 00000011,-0.00000052,0.00000303,0.00001062,0.00000047,0.00000346,0.000
 00112,-0.00000395,0.00001016,-0.00000319,0.00000219,0.00000080,0.00000
 505,-0.00000217,-0.00000302,-0.00000102,0.00000394,-0.00000452,0.00000
 816,0.00000799,0.00000098,-0.00000125,-0.00000286,0.00000341,0.0000005
 2,0.00000237,0.00000401,-0.00000098,0.00000329,0.00000475,0.00000228,-
 0.00000521,0.00000262,0.00000798,-0.00000411,0.00000062,0.00000710,-0.
 00000241,0.00000564,0.00000049,-0.00000349,0.00000476,0.00000024,-0.00
 000153,-0.00000777,0.00000065,-0.00000084,-0.00000352,0.00001099,0.000
 00474,-0.00000544,0.00000427,0.00000676,0.00000120,-0.00000068,0.00000
 190,0.00000762,-0.00000838,0.00000480,-0.00000014,-0.00001046,0.000002
 41,-0.00000558,-0.00000337,-0.00000239,-0.00000327,-0.00000007,0.00000
 396,0.00000067,-0.00000018,0.00000231,-0.00000220,-0.00000227,0.000003
 12,0.00000234,-0.00000511,-0.00000784,0.00000748,-0.00000058,-0.000001
 90,-0.00000988,-0.00000334,-0.00000567,-0.00001504,-0.00000745,-0.0000
 1102,-0.00000916,-0.00000862,-0.00001226,0.00000936,-0.00000006,0.0000
 0092,0.00000045,0.00000683,0.00000709,-0.00000422,0.00000511,0.0000054
 1,-0.00000195,-0.00000210,-0.00000397,0.00000455,-0.00000735,-0.000010
 93,-0.00000957,0.00000834,0.00000745,-0.00001365,0.00000703,0.00000770
 ,-0.00000169,0.00000925,0.00001065,0.00000795,0.00000896,0.00001030,0.
 00000367,0.00000850,0.00000753\\\@


 CHARLIE BROWN -- WHICH DO YOU THINK LASTS LONGER IN LIFE, THE GOOD THINGS 
                  OR THE BAD THINGS?
 LINUS --         GOOD THINGS LAST EIGHT SECONDS ..
                  BAD THINGS LAST THREE WEEKS
 CHARLIE BROWN -- WHAT ABOUT IN BETWEEN?
 SNOOPY --        IN BETWEEN YOU SHOULD TAKE A NAP ...
 Job cpu time:       0 days  4 hours 57 minutes 46.5 seconds.
 File lengths (MBytes):  RWF=   1335 Int=      0 D2E=      0 Chk=     50 Scr=      1
 Normal termination of Gaussian 09 at Thu Oct 27 13:21:07 2016.
