Job Toru-SiPh3-Type-I-E-2-chkp4-unrestrained_SPE_B3LYP started on tethys at Mon Nov 14 11:30:26 2016
jobid: tethys-0-5829a051

  +--------------------------------------------------------------------+
  |  Jaguar version 8.4, release  16                                   |
  |                                                                    |
  |  Copyright Schrodinger, Inc.                                       |
  |  All Rights Reserved.                                              |
  |                                                                    |
  |  The following have contributed to Jaguar (listed alphabetically): |
  |  Mike Beachy, Art Bochevarov, Dale Braden, Yixiang Cao,            |
  |  Chris Cortis, Rich Friesner, Bill Goddard, Hod Greeley,           |
  |  Tom Hughes, Jean-Marc Langlois, Daniel Mainz, Rob Murphy,         |
  |  Dean Philipp, Tom Pollard, Murco Ringnalda.                       |
  |                                                                    |
  |  Use of this program should be acknowledged in publications as:    |
  |                                                                    |
  |  Jaguar, version 8.4, Schrodinger, Inc., New York, NY, 2013.       |
  |                                                                    |
  |  A. D. Bochevarov, E. Harder, T. F. Hughes, J. R. Greenwood,       |
  |  D. A. Braden, D. M. Philipp, D. Rinaldo, M. D. Halls,             |
  |  J. Zhang, R. A. Friesner, "Jaguar: A High-Performance Quantum     |
  |  Chemistry Software Program with Strengths in Life and Materials   |
  |  Sciences", Int. J. Quantum Chem., 2013, 113(18), 2110-2142.       |
  +--------------------------------------------------------------------+
  
  start of program pre
  
  Job name: Toru-SiPh3-Type-I-E-2-chkp4-unrestrained_SPE_B3LYP
  Executables used: /usr/local/shared/schrodinger/current/jaguar-v84016/bin/Linux-x86_64
  Temporary files : /home/ab2144/.schrodinger/tmp/Toru-SiPh3-Type-I-E-2-chkp4-unrestrained_SPE_B3LYP
  Maestro file (input):  Toru-SiPh3-Type-I-E-2-chkp4-unrestrained_SPE_B3LYP.mae
  Maestro file (output): Toru-SiPh3-Type-I-E-2-chkp4-unrestrained_SPE_B3LYP.01.mae
  
  
  basis set:             6-31g**         
  net molecular charge:    0
  multiplicity:            1
  
  keygrid settings 
    wispc.....   7.500E-01
    ldens.....   0
    denspc....   7.500E-01
  
   grid     daf set  nls  grid set  Q type
  ------    -------  ---  --------  ------
  coarse       1      1       1        1
  medium       2      2       2        1
  fine         3      2       3        0
  ultrafine    4      2       4        1
  charge       0      1      -1        1
  gradient     5      2       4        1
  density      0      1       0        0
  DFT-fine     0      1     -13        0
  DFT-med.     0      1     -13        0
  DFT-grad     0      1     -13        0
  DFT-der2     0      1       0        0
  DFT-cphf     0      1       0        0
  LMP2-enrg    4      2       4        1
  LMP2-grad    5      2       2        1
  DFT-cphf2    0      1       0        0
  PBF-dens     0      1       0        0
  plotting     0      1       0        0
  
  idftgrdm  100
  ndftgrdm   50    0    0
  idftgrdf  111
  ndftgrdf   85    0    0
  idftgrdg  111
  ndftgrdg   80    3    0
  idftgrdu  433
  ndftgrdu  105    0    0
  idftgrdd  433
  ndftgrdd  105    0    0
  idftgrdc  433
  ndftgrdc   26    0    0
  idftgrdp  433
  ndftgrdp   18    0    0
  
  number of basis functions....         1571
  
 Input geometry:
                                   angstroms
  atom               x                 y                 z
  C1           -0.4519000000     -5.3920000000     -0.4267000000 
  C2           -1.3645000000     -4.2194000000     -0.3072000000 
  C3           -0.9263000000     -6.5848000000     -0.8039000000 
  C4           -2.6645000000     -4.3704000000     -0.6391000000 
  C5           -0.8675000000     -2.8784000000      0.1318000000 
  C6           -3.1814000000     -5.6972000000     -1.0491000000 
  C7           -3.5688000000     -3.2083000000     -0.6319000000 
  C8           -2.3571000000     -6.7472000000     -1.1204000000 
  C9           -1.6720000000     -1.7918000000      0.0105000000 
  C10           0.5245000000     -2.7255000000      0.6270000000 
  C11          -3.1054000000     -1.9790000000     -0.3634000000 
  O12          -1.2489000000     -0.5525000000      0.4367000000 
  Si13         -4.2732000000     -0.5225000000     -0.4282000000 
  C14           1.0114000000     -3.4086000000      1.6880000000 
  C15           1.4280000000     -1.8497000000     -0.1573000000 
  C16           2.4687000000     -3.3701000000      1.9758000000 
  C17           0.1558000000     -4.2192000000      2.5894000000 
  C18           3.2950000000     -2.6701000000      1.1864000000 
  C19           2.9853000000     -4.1523000000      3.1160000000 
  C20           2.7603000000     -1.8906000000      0.0474000000 
  Si21          3.9578000000     -0.9680000000     -1.0430000000 
  O22           0.8769000000     -1.0151000000     -1.0949000000 
  C23           0.6956000000     -4.9007000000      3.6069000000 
  C24           2.1502000000     -4.8715000000      3.8742000000 
  P25          -0.0145000000      0.1832000000     -0.4080000000 
  O26          -0.5487000000      1.0295000000     -1.5322000000 
  O27           0.8036000000      0.8772000000      0.6635000000 
  C28          -3.8924000000      0.5585000000     -1.8920000000 
  C29          -6.0300000000     -1.0746000000     -0.6965000000 
  C30          -4.1340000000      0.3534000000      1.2056000000 
  C31           4.2924000000      0.7160000000     -0.3201000000 
  C32           5.5364000000     -1.9556000000     -1.1385000000 
  C33           3.2162000000     -0.8235000000     -2.7485000000 
  C34          -2.9875000000      0.1813000000     -2.8108000000 
  C35          -4.6827000000      1.7931000000     -2.1158000000 
  C36          -6.9744000000     -0.9016000000      0.2441000000 
  C37          -6.4033000000     -1.6735000000     -2.0014000000 
  C38          -3.9740000000      1.6838000000      1.2863000000 
  C39          -4.2374000000     -0.4454000000      2.4510000000 
  C40           4.9685000000      1.6367000000     -1.0284000000 
  C41           3.8352000000      1.0465000000      1.0516000000 
  C42           6.7391000000     -1.3735000000     -0.9891000000 
  C43           5.4630000000     -3.4244000000     -1.3398000000 
  C44           3.1074000000     -1.9009000000     -3.5444000000 
  C45           2.6402000000      0.4661000000     -3.1977000000 
  C46          -2.7254000000      1.0316000000     -3.9906000000 
  C47          -3.4174000000      2.1627000000     -4.1687000000 
  C48          -4.4498000000      2.5576000000     -3.1896000000 
  C49          -8.3658000000     -1.3293000000     -0.0125000000 
  C50          -8.6937000000     -1.8790000000     -1.1877000000 
  C51          -7.6648000000     -2.0570000000     -2.2317000000 
  C52          -3.9601000000      2.3501000000      2.6049000000 
  C53          -4.0648000000      1.6264000000      3.7255000000 
  C54          -4.2015000000      0.1586000000      3.6447000000 
  C55           5.2385000000      2.9703000000     -0.4523000000 
  C56           4.8088000000      3.2679000000      0.7791000000 
  C57           4.0774000000      2.2577000000      1.5686000000 
  C58           7.9733000000     -2.1839000000     -1.0579000000 
  C59           7.8993000000     -3.5049000000     -1.2555000000 
  C60           6.5823000000     -4.1560000000     -1.3975000000 
  C61           2.4576000000     -1.7890000000     -4.8674000000 
  C62           1.9514000000     -0.6178000000     -5.2698000000 
  C63           2.0402000000      0.5636000000     -4.3897000000 
  C64           2.1829000000      6.5985000000     -1.5652000000 
  C65           1.4226000000      6.1577000000     -0.4853000000 
  C66           1.2856000000      4.7865000000     -0.2178000000 
  C67           1.8971000000      3.8552000000     -1.0715000000 
  C68           2.6476000000      4.3020000000     -2.1575000000 
  C69           2.7980000000      5.6684000000     -2.4033000000 
  C70           0.5097000000      4.3930000000      0.9778000000 
  N71           0.8367000000      3.2512000000      1.6630000000 
  S72           0.3056000000      3.1647000000      3.2915000000 
  O73           1.1247000000      4.0755000000      4.0859000000 
  O74          -1.1601000000      3.3254000000      3.3085000000 
  C75           0.6656000000      1.4319000000      3.6983000000 
  C76          -0.3458000000      0.4904000000      3.5287000000 
  C77          -0.0522000000     -0.8162000000      3.9103000000 
  C78           1.2129000000     -1.0991000000      4.4218000000 
  C79           2.1492000000     -0.0678000000      4.5190000000 
  N80           1.8799000000      1.1939000000      4.1671000000 
  N81          -1.3234000000      3.4883000000     -0.9453000000 
  C82          -1.5702000000      4.3540000000     -1.9251000000 
  C83          -1.9415000000      5.6066000000     -1.3794000000 
  C84          -1.8987000000      5.4614000000     -0.0058000000 
  C85          -1.4192000000      4.1451000000      0.2901000000 
  H86           0.6067000000     -5.2945000000     -0.2282000000 
  H87          -0.2584000000     -7.4323000000     -0.8896000000 
  H88          -4.2286000000     -5.8208000000     -1.2959000000 
  H89          -4.6083000000     -3.3697000000     -0.8770000000 
  H90          -2.7351000000     -7.7155000000     -1.4221000000 
  H91          -0.9170000000     -4.2554000000      2.4509000000 
  H92           4.3589000000     -2.6573000000      1.3910000000 
  H93           4.0443000000     -4.1510000000      3.3448000000 
  H94           0.0548000000     -5.4819000000      4.2575000000 
  H95           2.5424000000     -5.4401000000      4.7075000000 
  H96           0.8899000000      2.2915000000      1.1728000000 
  H97          -2.4309000000     -0.7401000000     -2.7032000000 
  H98          -5.4579000000      2.0782000000     -1.4158000000 
  H99          -6.7424000000     -0.4472000000      1.1967000000 
  H100         -5.6553000000     -1.8045000000     -2.7735000000 
  H101         -3.8735000000      2.2925000000      0.4011000000 
  H102         -4.3455000000     -1.5217000000      2.3994000000 
  H103          5.3189000000      1.4177000000     -2.0294000000 
  H104          3.3071000000      0.3130000000      1.6457000000 
  H105          6.8333000000     -0.3115000000     -0.8190000000 
  H106          4.5032000000     -3.9186000000     -1.4164000000 
  H107          3.4770000000     -2.8658000000     -3.2324000000 
  H108          2.6642000000      1.3242000000     -2.5482000000 
  H109         -1.9709000000      0.7371000000     -4.7086000000 
  H110         -3.2256000000      2.7875000000     -5.0313000000 
  H111         -5.0233000000      3.4616000000     -3.3478000000 
  H112         -9.1193000000     -1.1944000000      0.7527000000 
  H113         -9.7127000000     -2.1910000000     -1.3768000000 
  H114         -7.9342000000     -2.4958000000     -3.1836000000 
  H115         -3.8648000000      3.4267000000      2.6611000000 
  H116         -4.0480000000      2.1140000000      4.6914000000 
  H117         -4.2767000000     -0.4260000000      4.5523000000 
  H118          5.7735000000      3.7094000000     -1.0342000000 
  H119          4.9959000000      4.2477000000      1.1987000000 
  H120          3.7416000000      2.5007000000      2.5677000000 
  H121          8.9376000000     -1.7049000000     -0.9473000000 
  H122          8.8025000000     -4.0992000000     -1.3047000000 
  H123          6.5244000000     -5.2277000000     -1.5374000000 
  H124          2.3862000000     -2.6595000000     -5.5066000000 
  H125          1.4694000000     -0.5358000000     -6.2353000000 
  H126          1.6067000000      1.5042000000     -4.7043000000 
  H127          2.2959000000      7.6626000000     -1.7487000000 
  H128          0.9439000000      6.8804000000      0.1694000000 
  H129          1.7892000000      2.7939000000     -0.8747000000 
  H130          3.1297000000      3.5875000000     -2.8155000000 
  H131          3.3929000000      6.0049000000     -3.2471000000 
  H132          0.2805000000      5.2285000000      1.6352000000 
  H133         -1.3003000000      0.7654000000      3.1038000000 
  H134         -0.8003000000     -1.5949000000      3.8033000000 
  H135          1.4772000000     -2.1007000000      4.7426000000 
  H136          3.1504000000     -0.2571000000      4.8979000000 
  H137         -1.0234000000      2.4815000000     -1.1173000000 
  H138         -1.4662000000      4.0620000000     -2.9613000000 
  H139         -2.1993000000      6.4889000000     -1.9473000000 
  H140         -2.1313000000      6.2089000000      0.7411000000 
  H141         -1.7014000000      3.5809000000      1.1699000000 
   
  principal moments of inertia:
        amu*angstrom^2:    17437.90723    21638.24120    26460.30789
                g*cm^2: 2.89563226E-36 3.59311404E-36 4.39383695E-36
   
  rotational constants:
               cm^(-1):      0.00096672      0.00077907      0.00063709
                   GHz:      0.02898163      0.02335583      0.01909951
   
  Molecular weight:    1177.32 amu
   
  Stoichiometry: Si2C72PN3H56SO6
  Molecular Point Group: C1      
  Point Group used: C1
  
  nuclear repulsion energy.......   17577.539784606 hartrees
 
 Non-default options chosen:
   SCF calculation type: DFT(b3lyp)                  
   DFT=Becke_3_Parameter/HF+Slater+Becke88+VWN+LYP (B3LYP)
   Solvation energy will be computed using PBF
     -solute cavity energy will not be included
     -surface area terms will not be included
   Highest accuracy cutoffs used in SCF
   Solvent: other                                                           
   Internal dielectric constant:    1.000
   Continuum dielectric constant:   2.380
   Solvent probe molecule radius:   2.760
  
 Temporary integer options set:
     73=  2
  
  atom       vdw   vdw2    cov     mass  grid  daf  charge   basis
  C1        1.949  1.900  0.770   12.000    Y    Y      Y    6-31g**
  C2        1.949  1.900  0.770   12.000    Y    Y      Y    6-31g**
  C3        1.949  1.900  0.770   12.000    Y    Y      Y    6-31g**
  C4        1.949  1.900  0.770   12.000    Y    Y      Y    6-31g**
  C5        1.949  1.900  0.770   12.000    Y    Y      Y    6-31g**
  C6        1.949  1.900  0.770   12.000    Y    Y      Y    6-31g**
  C7        1.949  1.900  0.770   12.000    Y    Y      Y    6-31g**
  C8        1.949  1.900  0.770   12.000    Y    Y      Y    6-31g**
  C9        1.949  1.900  0.770   12.000    Y    Y      Y    6-31g**
  C10       1.949  1.900  0.770   12.000    Y    Y      Y    6-31g**
  C11       1.949  1.900  0.770   12.000    Y    Y      Y    6-31g**
  O12       1.702  1.600  0.730   15.995    Y    Y      Y    6-31g**
  Si13      2.217  2.147  1.110   27.977    Y    Y      Y    6-31g**
  C14       1.949  1.900  0.770   12.000    Y    Y      Y    6-31g**
  C15       1.949  1.900  0.770   12.000    Y    Y      Y    6-31g**
  C16       1.949  1.900  0.770   12.000    Y    Y      Y    6-31g**
  C17       1.949  1.900  0.770   12.000    Y    Y      Y    6-31g**
  C18       1.949  1.900  0.770   12.000    Y    Y      Y    6-31g**
  C19       1.949  1.900  0.770   12.000    Y    Y      Y    6-31g**
  C20       1.949  1.900  0.770   12.000    Y    Y      Y    6-31g**
  Si21      2.217  2.147  1.110   27.977    Y    Y      Y    6-31g**
  O22       1.702  1.600  0.730   15.995    Y    Y      Y    6-31g**
  C23       1.949  1.900  0.770   12.000    Y    Y      Y    6-31g**
  C24       1.949  1.900  0.770   12.000    Y    Y      Y    6-31g**
  P25       2.147  2.074  1.060   30.974    Y    Y      Y    6-31g**
  O26       1.702  1.600  0.730   15.995    Y    Y      Y    6-31g**
  O27       1.702  1.600  0.730   15.995    Y    Y      Y    6-31g**
  C28       1.949  1.900  0.770   12.000    Y    Y      Y    6-31g**
  C29       1.949  1.900  0.770   12.000    Y    Y      Y    6-31g**
  C30       1.949  1.900  0.770   12.000    Y    Y      Y    6-31g**
  C31       1.949  1.900  0.770   12.000    Y    Y      Y    6-31g**
  C32       1.949  1.900  0.770   12.000    Y    Y      Y    6-31g**
  C33       1.949  1.900  0.770   12.000    Y    Y      Y    6-31g**
  C34       1.949  1.900  0.770   12.000    Y    Y      Y    6-31g**
  C35       1.949  1.900  0.770   12.000    Y    Y      Y    6-31g**
  C36       1.949  1.900  0.770   12.000    Y    Y      Y    6-31g**
  C37       1.949  1.900  0.770   12.000    Y    Y      Y    6-31g**
  C38       1.949  1.900  0.770   12.000    Y    Y      Y    6-31g**
  C39       1.949  1.900  0.770   12.000    Y    Y      Y    6-31g**
  C40       1.949  1.900  0.770   12.000    Y    Y      Y    6-31g**
  C41       1.949  1.900  0.770   12.000    Y    Y      Y    6-31g**
  C42       1.949  1.900  0.770   12.000    Y    Y      Y    6-31g**
  C43       1.949  1.900  0.770   12.000    Y    Y      Y    6-31g**
  C44       1.949  1.900  0.770   12.000    Y    Y      Y    6-31g**
  C45       1.949  1.900  0.770   12.000    Y    Y      Y    6-31g**
  C46       1.949  1.900  0.770   12.000    Y    Y      Y    6-31g**
  C47       1.949  1.900  0.770   12.000    Y    Y      Y    6-31g**
  C48       1.949  1.900  0.770   12.000    Y    Y      Y    6-31g**
  C49       1.949  1.900  0.770   12.000    Y    Y      Y    6-31g**
  C50       1.949  1.900  0.770   12.000    Y    Y      Y    6-31g**
  C51       1.949  1.900  0.770   12.000    Y    Y      Y    6-31g**
  C52       1.949  1.900  0.770   12.000    Y    Y      Y    6-31g**
  C53       1.949  1.900  0.770   12.000    Y    Y      Y    6-31g**
  C54       1.949  1.900  0.770   12.000    Y    Y      Y    6-31g**
  C55       1.949  1.900  0.770   12.000    Y    Y      Y    6-31g**
  C56       1.949  1.900  0.770   12.000    Y    Y      Y    6-31g**
  C57       1.949  1.900  0.770   12.000    Y    Y      Y    6-31g**
  C58       1.949  1.900  0.770   12.000    Y    Y      Y    6-31g**
  C59       1.949  1.900  0.770   12.000    Y    Y      Y    6-31g**
  C60       1.949  1.900  0.770   12.000    Y    Y      Y    6-31g**
  C61       1.949  1.900  0.770   12.000    Y    Y      Y    6-31g**
  C62       1.949  1.900  0.770   12.000    Y    Y      Y    6-31g**
  C63       1.949  1.900  0.770   12.000    Y    Y      Y    6-31g**
  C64       1.949  1.900  0.770   12.000    Y    Y      Y    6-31g**
  C65       1.949  1.900  0.770   12.000    Y    Y      Y    6-31g**
  C66       1.949  1.900  0.770   12.000    Y    Y      Y    6-31g**
  C67       1.949  1.900  0.770   12.000    Y    Y      Y    6-31g**
  C68       1.949  1.900  0.770   12.000    Y    Y      Y    6-31g**
  C69       1.949  1.900  0.770   12.000    Y    Y      Y    6-31g**
  C70       1.949  1.900  0.770   12.000    Y    Y      Y    6-31g**
  N71       1.831  1.600  0.750   14.003    Y    Y      Y    6-31g**
  S72       2.070  1.900  1.020   31.972    Y    Y      Y    6-31g**
  O73       1.702  1.600  0.730   15.995    Y    Y      Y    6-31g**
  O74       1.702  1.600  0.730   15.995    Y    Y      Y    6-31g**
  C75       1.949  1.900  0.770   12.000    Y    Y      Y    6-31g**
  C76       1.949  1.900  0.770   12.000    Y    Y      Y    6-31g**
  C77       1.949  1.900  0.770   12.000    Y    Y      Y    6-31g**
  C78       1.949  1.900  0.770   12.000    Y    Y      Y    6-31g**
  C79       1.949  1.900  0.770   12.000    Y    Y      Y    6-31g**
  N80       1.831  1.600  0.750   14.003    Y    Y      Y    6-31g**
  N81       1.831  1.600  0.750   14.003    Y    Y      Y    6-31g**
  C82       1.949  1.900  0.770   12.000    Y    Y      Y    6-31g**
  C83       1.949  1.900  0.770   12.000    Y    Y      Y    6-31g**
  C84       1.949  1.900  0.770   12.000    Y    Y      Y    6-31g**
  C85       1.949  1.900  0.770   12.000    Y    Y      Y    6-31g**
  H86       1.597  1.150  0.320    1.008    Y    Y      Y    6-31g**
  H87       1.597  1.150  0.320    1.008    Y    Y      Y    6-31g**
  H88       1.597  1.150  0.320    1.008    Y    Y      Y    6-31g**
  H89       1.597  1.150  0.320    1.008    Y    Y      Y    6-31g**
  H90       1.597  1.150  0.320    1.008    Y    Y      Y    6-31g**
  H91       1.597  1.150  0.320    1.008    Y    Y      Y    6-31g**
  H92       1.597  1.150  0.320    1.008    Y    Y      Y    6-31g**
  H93       1.597  1.150  0.320    1.008    Y    Y      Y    6-31g**
  H94       1.597  1.150  0.320    1.008    Y    Y      Y    6-31g**
  H95       1.597  1.150  0.320    1.008    Y    Y      Y    6-31g**
  H96       1.597  1.150  0.320    1.008    Y    Y      Y    6-31g**
  H97       1.597  1.150  0.320    1.008    Y    Y      Y    6-31g**
  H98       1.597  1.150  0.320    1.008    Y    Y      Y    6-31g**
  H99       1.597  1.150  0.320    1.008    Y    Y      Y    6-31g**
  H100      1.597  1.150  0.320    1.008    Y    Y      Y    6-31g**
  H101      1.597  1.150  0.320    1.008    Y    Y      Y    6-31g**
  H102      1.597  1.150  0.320    1.008    Y    Y      Y    6-31g**
  H103      1.597  1.150  0.320    1.008    Y    Y      Y    6-31g**
  H104      1.597  1.150  0.320    1.008    Y    Y      Y    6-31g**
  H105      1.597  1.150  0.320    1.008    Y    Y      Y    6-31g**
  H106      1.597  1.150  0.320    1.008    Y    Y      Y    6-31g**
  H107      1.597  1.150  0.320    1.008    Y    Y      Y    6-31g**
  H108      1.597  1.150  0.320    1.008    Y    Y      Y    6-31g**
  H109      1.597  1.150  0.320    1.008    Y    Y      Y    6-31g**
  H110      1.597  1.150  0.320    1.008    Y    Y      Y    6-31g**
  H111      1.597  1.150  0.320    1.008    Y    Y      Y    6-31g**
  H112      1.597  1.150  0.320    1.008    Y    Y      Y    6-31g**
  H113      1.597  1.150  0.320    1.008    Y    Y      Y    6-31g**
  H114      1.597  1.150  0.320    1.008    Y    Y      Y    6-31g**
  H115      1.597  1.150  0.320    1.008    Y    Y      Y    6-31g**
  H116      1.597  1.150  0.320    1.008    Y    Y      Y    6-31g**
  H117      1.597  1.150  0.320    1.008    Y    Y      Y    6-31g**
  H118      1.597  1.150  0.320    1.008    Y    Y      Y    6-31g**
  H119      1.597  1.150  0.320    1.008    Y    Y      Y    6-31g**
  H120      1.597  1.150  0.320    1.008    Y    Y      Y    6-31g**
  H121      1.597  1.150  0.320    1.008    Y    Y      Y    6-31g**
  H122      1.597  1.150  0.320    1.008    Y    Y      Y    6-31g**
  H123      1.597  1.150  0.320    1.008    Y    Y      Y    6-31g**
  H124      1.597  1.150  0.320    1.008    Y    Y      Y    6-31g**
  H125      1.597  1.150  0.320    1.008    Y    Y      Y    6-31g**
  H126      1.597  1.150  0.320    1.008    Y    Y      Y    6-31g**
  H127      1.597  1.150  0.320    1.008    Y    Y      Y    6-31g**
  H128      1.597  1.150  0.320    1.008    Y    Y      Y    6-31g**
  H129      1.597  1.150  0.320    1.008    Y    Y      Y    6-31g**
  H130      1.597  1.150  0.320    1.008    Y    Y      Y    6-31g**
  H131      1.597  1.150  0.320    1.008    Y    Y      Y    6-31g**
  H132      1.597  1.150  0.320    1.008    Y    Y      Y    6-31g**
  H133      1.597  1.150  0.320    1.008    Y    Y      Y    6-31g**
  H134      1.597  1.150  0.320    1.008    Y    Y      Y    6-31g**
  H135      1.597  1.150  0.320    1.008    Y    Y      Y    6-31g**
  H136      1.597  1.150  0.320    1.008    Y    Y      Y    6-31g**
  H137      1.597  1.150  0.320    1.008    Y    Y      Y    6-31g**
  H138      1.597  1.150  0.320    1.008    Y    Y      Y    6-31g**
  H139      1.597  1.150  0.320    1.008    Y    Y      Y    6-31g**
  H140      1.597  1.150  0.320    1.008    Y    Y      Y    6-31g**
  H141      1.597  1.150  0.320    1.008    Y    Y      Y    6-31g**
  
  Peak memory usage:    526 Mb
  
  end of program pre
   
 Time(pre)  user:        0.0  user+sys:        0.0  wallclock:        0.5
  
  start of program onee
  
  smallest eigenvalue of S:    2.230E-04
  number of canonical orbitals.....         1564
  Peak memory usage:    700 Mb
  
  end of program onee
   
 Time(onee)  user:       22.0  user+sys:       23.0  wallclock:       25.3
  
  start of program hfig
  
  initial wavefunction generated automatically from atomic wavefunctions
 
  Irreducible     Total no   No of occupied orbitals 
  representation  orbitals   Shell_1  Shell_2    ...
  No Symm         1564        308
  ------------------------
  Orbital occupation/shell    1.000
 
  Peak memory usage:    639 Mb
  
  end of program hfig
   
 Time(hfig)  user:       29.0  user+sys:       29.0  wallclock:       30.1
  
  start of program probe
  
  Peak memory usage:    633 Mb
  
  end of program probe
   
 Time(probe)  user:       24.0  user+sys:       24.0  wallclock:       25.8
  
  start of program grid
  
  
   grid     grid set  grid #  grid sym
  ------    --------  ------  --------
  coarse        0        0        1
  medium        2        1        1
  fine          0        0        1
  ultrafine     4        2        1
  charge       -1        3        1
  gradient      4        2        1
  density       0        0        1
  DFT-fine    -13        4        1
  DFT-med.    -13        4        1
  DFT-grad    -13        4        1
  DFT-der2      0        0        1
  DFT-cphf      0        0        1
  LMP2-enrg     4        2        1
  LMP2-grad     2        1        1
  DFT-cphf2     0        0        1
  PBF-dens      0        0        1
  plotting      0        0        1
  
   
  number of gridpoints: 
     atom        C1       C2       C3       C4       C5       C6       C7
  grid # 1       97      101       94      102      100       96       93
  grid # 2      338      360      336      366      358      336      337
  grid # 3       33       29       42       47       16       46       25
  grid # 4    14816    14816    14816    14816    14816    14816    14816
   
  number of gridpoints: 
     atom        C8       C9      C10      C11      O12     Si13      C14
  grid # 1       94       97      100      100      112      467      101
  grid # 2      336      356      353      357      439      467      356
  grid # 3       49       19       11        7       39        7        7
  grid # 4    14816    14816    14816    14816    23902    22912    14816
   
  number of gridpoints: 
     atom       C15      C16      C17      C18      C19      C20     Si21
  grid # 1       97      101       96       93       97      102      474
  grid # 2      354      362      332      331      335      358      474
  grid # 3       24       21       12       16       24        9       10
  grid # 4    14816    14816    14816    14816    14816    14816    22912
   
  number of gridpoints: 
     atom       O22      C23      C24      P25      O26      O27      C28
  grid # 1      112       94       93      445      116      115       99
  grid # 2      442      335      334      445      443      433      357
  grid # 3       59       22       26        8       52       33       10
  grid # 4    23902    14816    14816    23204    23902    23902    14816
   
  number of gridpoints: 
     atom       C29      C30      C31      C32      C33      C34      C35
  grid # 1       99      100      101      101      100       92       94
  grid # 2      360      357      356      360      360      332      335
  grid # 3       13        6       11       19       19       14       21
  grid # 4    14816    14816    14816    14816    14816    14816    14816
   
  number of gridpoints: 
     atom       C36      C37      C38      C39      C40      C41      C42
  grid # 1       92       94       92       94       92       97       93
  grid # 2      338      335      333      332      331      334      338
  grid # 3       29       22       18       10        8       22       38
  grid # 4    14816    14816    14816    14816    14816    14816    14816
   
  number of gridpoints: 
     atom       C43      C44      C45      C46      C47      C48      C49
  grid # 1       95       93       94       93       93       93       94
  grid # 2      334      335      332      333      331      334      335
  grid # 3       22       34       22       25       27       26       47
  grid # 4    14816    14816    14816    14816    14816    14816    14816
   
  number of gridpoints: 
     atom       C50      C51      C52      C53      C54      C55      C56
  grid # 1       94       93       93       93       92       93       93
  grid # 2      335      335      331      331      330      332      333
  grid # 3       47       39       23       24       17       21       26
  grid # 4    14816    14816    14816    14816    14816    14816    14816
   
  number of gridpoints: 
     atom       C57      C58      C59      C60      C61      C62      C63
  grid # 1       93       94       94       94       94       93       94
  grid # 2      334      336      336      336      336      336      335
  grid # 3       27       45       47       42       41       41       38
  grid # 4    14816    14816    14816    14816    14816    14816    14816
   
  number of gridpoints: 
     atom       C64      C65      C66      C67      C68      C69      C70
  grid # 1       95       95      100       95       95       95       91
  grid # 2      332      334      362      331      332      332      319
  grid # 3       34       26       18       13       22       32        6
  grid # 4    14816    14816    14816    14816    14816    14816    14816
   
  number of gridpoints: 
     atom       N71      S72      O73      O74      C75      C76      C77
  grid # 1       98      442      122      119       98       96       96
  grid # 2      354      442      505      470      357      325      330
  grid # 3       15       13      301      119       32       28       34
  grid # 4    15000    32664    23902    23902    14816    14816    14816
   
  number of gridpoints: 
     atom       C78      C79      N80      N81      C82      C83      C84
  grid # 1       96       96      110       98       94       93       93
  grid # 2      331      336      414      346      329      329      329
  grid # 3       36       30       73       11       16       20       18
  grid # 4    14816    14816    15000    15000    14816    14816    14816
   
  number of gridpoints: 
     atom       C85      H86      H87      H88      H89      H90      H91
  grid # 1       92      112      118      118      109      118      114
  grid # 2      324      434      451      446      424      453      431
  grid # 3        7      229      419      358      173      425      215
  grid # 4    14816    16416    16416    16416    16416    16416    16416
   
  number of gridpoints: 
     atom       H92      H93      H94      H95      H96      H97      H98
  grid # 1      114      117      117      117       98      111      112
  grid # 2      428      442      448      449      381      430      432
  grid # 3      198      341      396      401       39      191      251
  grid # 4    16416    16416    16416    16416    16416    16416    16416
   
  number of gridpoints: 
     atom       H99     H100     H101     H102     H103     H104     H105
  grid # 1      111      112      107      113      112      110      112
  grid # 2      435      434      418      435      431      416      431
  grid # 3      234      250      119      252      223      117      229
  grid # 4    16416    16416    16416    16416    16416    16416    16416
   
  number of gridpoints: 
     atom      H106     H107     H108     H109     H110     H111     H112
  grid # 1      110      111      104      115      117      117      118
  grid # 2      426      431      406      444      448      451      453
  grid # 3      190      213       51      298      362      382      420
  grid # 4    16416    16416    16416    16416    16416    16416    16416
   
  number of gridpoints: 
     atom      H113     H114     H115     H116     H117     H118     H119
  grid # 1      118      118      112      117      117      117      117
  grid # 2      453      452      437      450      449      445      450
  grid # 3      424      420      269      384      384      348      375
  grid # 4    16416    16416    16416    16416    16416    16416    16416
   
  number of gridpoints: 
     atom      H120     H121     H122     H123     H124     H125     H126
  grid # 1      111      118      118      118      118      117      116
  grid # 2      433      453      453      452      451      451      444
  grid # 3      215      419      425      418      418      392      305
  grid # 4    16416    16416    16416    16416    16416    16416    16416
   
  number of gridpoints: 
     atom      H127     H128     H129     H130     H131     H132     H133
  grid # 1      118      112      103      111      117      106      106
  grid # 2      449      435      404      424      450      417      416
  grid # 3      411      280       71      180      399      147      106
  grid # 4    16416    16416    16416    16416    16416    16416    16416
   
  number of gridpoints: 
     atom      H134     H135     H136     H137     H138     H139     H140
  grid # 1      111      111      117      102      112      117      115
  grid # 2      435      435      451      394      438      459      451
  grid # 3      224      231      391       74      252      428      362
  grid # 4    16416    16416    16416    16416    16416    16416    16416
   
  number of gridpoints: 
     atom      H141    total
  grid # 1      103    16037
  grid # 2      412    54555
  grid # 3       60    18326
  grid # 4    16416  2276152
   
  Peak memory usage:    666 Mb
  
  end of program grid
   
 Time(grid)  user:      366.0  user+sys:      367.0  wallclock:      376.0
  
  start of program rwr
  
  dpptrf failed in rinv with info = 192
  switching to SVD for RwR matrix  22 for grid  2
  Peak memory usage:    648 Mb
  
  end of program rwr
   
 Time(rwr)  user:       57.0  user+sys:       61.0  wallclock:       72.1
  
  start of program scf
  
 number of electrons..........        616
 number of alpha electrons....        308
 number of beta electrons.....        308
 number of orbitals, total....       1564
 number of doubly-occ'd orbs..        308
 number of open shell orbs....          0
 number of occupied orbitals..        308
 number of virtual orbitals...       1256
 number of hamiltonians.......          1
 number of shells.............          1
 SCF type: DFT=Becke_3_Parameter/HF+Slater+Becke88+VWN+LYP (B3LYP)
  
       i  u  d  i  g                   
       t  p  i  c  r                                 RMS    maximum
       e  d  i  u  i                       energy  density   DIIS  
       r  t  s  t  d       total energy    change  change    error 
  
etot    1  N  N  1  U   -4700.96631343743           2.9E-03  1.2E-01
etot    2  N  Y  1  U   -4699.80842611346 -1.2E+00  4.2E-03  1.3E-01
etot    3  N  Y  1  U   -4678.82905286637 -2.1E+01  4.3E-03  1.5E-01
etot    4  N  Y  1  U   -4701.38073122195  2.3E+01  2.9E-03  6.7E-02
etot    5  N  Y  1  U   -4691.08740201317 -1.0E+01  2.3E-03  8.5E-02
etot    6  N  Y  1  U   -4710.97142489537  2.0E+01  9.0E-04  2.8E-02
etot    7  N  Y  1  U   -4711.21037810573  2.4E-01  4.6E-04  2.6E-02
etot    8  N  Y  1  U   -4711.49124216097  2.8E-01  1.6E-04  7.1E-03
etot    9  N  Y  1  U   -4711.52286746525  3.2E-02  6.2E-05  3.7E-03
etot   10  N  Y  1  U   -4711.52651172046  3.6E-03  2.6E-05  1.3E-03
etot   11  N  Y  1  U   -4711.52770515099  1.2E-03  1.1E-05  5.2E-04
etot   12  N  Y  1  U   -4711.52788210412  1.8E-04  9.1E-06  3.1E-04
etot   13  N  Y  1  U   -4711.52798527716  1.0E-04  6.7E-06  2.0E-04
etot   14  N  N  1  U   -4711.52803342303  4.8E-05  0.0E+00  0.0E+00
  
  
 Energy components, in hartrees:
   (A)  Nuclear repulsion............   17577.53978460618
   (E)  Total one-electron terms.....  -41496.28788464353
   (F)    Electron-nuclear...........  -46170.71938867566
   (H)    Kinetic....................    4674.43150403210
   (I)  Total two-electron terms.....   19207.22006661432
   (J)    Coulomb....................   19782.33980369138
   (K)    Exchange+Correlation.......    -575.11973707706
   (L)  Electronic energy............  -22289.06781802921  (E+I)
   (M)  -V/T.........................       2.00793605155  (-(A+F+I)/H)
   (N)  Total energy.................   -4711.52803342303  (A+L)
  
 SCFE: SCF energy: DFT(b3lyp)     -4711.52803342303 hartrees   iterations:  14
  
 
 HOMO energy:    -0.20834
 LUMO energy:    -0.08875
 
  Orbital energies (hartrees): 
   -89.11050   -77.21927   -66.11176   -66.10996   -19.18364   -19.18062
   -19.14559   -19.14472   -19.09824   -19.09771   -14.38659   -14.37030
   -14.34897   -10.28581   -10.25481   -10.25463   -10.25452   -10.24977
   -10.23441   -10.23325   -10.21511   -10.21446   -10.21381   -10.21100
   -10.20871   -10.20774   -10.20713   -10.20655   -10.20536   -10.20326
   -10.20225   -10.20214   -10.20127   -10.20087   -10.19991   -10.19777
   -10.19750   -10.19628   -10.19557   -10.19502   -10.19451   -10.19401
   -10.19291   -10.19017   -10.19013   -10.18961   -10.18864   -10.18815
   -10.18728   -10.18694   -10.18677   -10.18671   -10.18647   -10.18638
   -10.18577   -10.18565   -10.18554   -10.18547   -10.18502   -10.18484
   -10.18466   -10.18426   -10.18401   -10.18317   -10.18283   -10.18164
   -10.18153   -10.18129   -10.17918   -10.17866   -10.17785   -10.17759
   -10.17735   -10.17701   -10.17651   -10.17425   -10.17405   -10.17218
   -10.17070   -10.17067   -10.17019   -10.16998   -10.16616   -10.16415
   -10.16254    -8.13717    -6.66367    -6.10223    -6.10099    -6.10001
    -5.25854    -5.25657    -4.82863    -4.82711    -4.82521    -3.61760
    -3.61717    -3.61680    -3.61559    -3.61512    -3.61497    -1.11130
    -1.09116    -1.04794    -0.99981    -0.99616    -0.97467    -0.96201
    -0.94634    -0.92773    -0.87621    -0.86577    -0.86278    -0.84144
    -0.83890    -0.83790    -0.83535    -0.83106    -0.82858    -0.81997
    -0.81364    -0.81062    -0.79781    -0.79205    -0.79134    -0.77528
    -0.75781    -0.75576    -0.74716    -0.74586    -0.74448    -0.74001
    -0.73929    -0.73906    -0.73638    -0.73533    -0.73408    -0.73160
    -0.73077    -0.73051    -0.72903    -0.72764    -0.72641    -0.72386
    -0.70863    -0.70626    -0.66076    -0.64850    -0.64282    -0.62624
    -0.62329    -0.61802    -0.61323    -0.60711    -0.60646    -0.60261
    -0.59759    -0.59660    -0.59516    -0.59418    -0.59162    -0.59021
    -0.58825    -0.58810    -0.58489    -0.58281    -0.58050    -0.57893
    -0.57847    -0.57705    -0.57363    -0.56863    -0.56430    -0.55928
    -0.54255    -0.53196    -0.53082    -0.52518    -0.52203    -0.51457
    -0.50715    -0.50600    -0.50387    -0.50263    -0.50060    -0.49977
    -0.49632    -0.49391    -0.48791    -0.48053    -0.47401    -0.47134
    -0.46958    -0.46838    -0.46451    -0.45955    -0.45914    -0.45595
    -0.45404    -0.45102    -0.44954    -0.44806    -0.44574    -0.44535
    -0.44314    -0.44165    -0.43937    -0.43847    -0.43767    -0.43532
    -0.43430    -0.43322    -0.43130    -0.43090    -0.43075    -0.42704
    -0.42684    -0.42598    -0.42496    -0.42444    -0.42386    -0.41865
    -0.41774    -0.41680    -0.41630    -0.41608    -0.41340    -0.41284
    -0.41256    -0.41022    -0.40898    -0.40676    -0.40365    -0.40123
    -0.39535    -0.38986    -0.38776    -0.38651    -0.38525    -0.38175
    -0.37972    -0.37851    -0.37476    -0.37309    -0.36730    -0.36461
    -0.36297    -0.35897    -0.35624    -0.35537    -0.35517    -0.35285
    -0.35202    -0.34862    -0.34766    -0.34489    -0.34390    -0.34053
    -0.33992    -0.33700    -0.33505    -0.33471    -0.33470    -0.33151
    -0.32957    -0.32608    -0.32480    -0.32285    -0.32000    -0.31889
    -0.31675    -0.31585    -0.30696    -0.30492    -0.30379    -0.29673
    -0.29649    -0.29381    -0.29011    -0.28729    -0.28524    -0.28452
    -0.28281    -0.27981    -0.27751    -0.27324    -0.27108    -0.26921
    -0.26084    -0.25817    -0.25679    -0.25164    -0.24854    -0.24700
    -0.24581    -0.24531    -0.24362    -0.24163    -0.23855    -0.23758
    -0.23672    -0.23565    -0.23372    -0.23278    -0.23162    -0.23004
    -0.22249    -0.20834    -0.08875    -0.05116    -0.04452    -0.03091
    -0.02612    -0.01797    -0.01364    -0.01184    -0.01009    -0.00987
 
  Peak memory usage:    843 Mb
  
  end of program scf
   
 Time(scf)  user:     9453.0  user+sys:     9559.0  wallclock:    19653.3
  
  start of program ch
  
  gridpoints used for charge fit        15805
    out of a possible maximum of        18326
  
   Electrostatic potential fitting constrained to reproduce
     total charge:                yes
     dipole moment:               no 
     traceless quadrupole moment: no 
     traceless octapole moment:   no 
  
  Atomic charges from electrostatic potential: 
   
 Atom       C1           C2           C3           C4           C5      
 Charge   -0.11394      0.04594     -0.15569      0.12568     -0.03419
   
 Atom       C6           C7           C8           C9           C10     
 Charge   -0.18647     -0.26582     -0.10761      0.06286     -0.10100
   
 Atom       C11          O12          Si13         C14          C15     
 Charge    0.06692     -0.25879     -0.07590      0.18173      0.14182
   
 Atom       C16          C17          C18          C19          C20     
 Charge    0.20259     -0.20551     -0.43272     -0.23640      0.01979
   
 Atom       Si21         O22          C23          C24          P25     
 Charge    0.22983     -0.21742     -0.13705     -0.09765      0.81571
   
 Atom       O26          O27          C28          C29          C30     
 Charge   -0.54530     -0.58030      0.07973      0.09442      0.21602
   
 Atom       C31          C32          C33          C34          C35     
 Charge    0.06031     -0.09296     -0.10681     -0.02931     -0.20215
   
 Atom       C36          C37          C38          C39          C40     
 Charge   -0.12826     -0.13367     -0.23287     -0.15169     -0.07293
   
 Atom       C41          C42          C43          C44          C45     
 Charge   -0.22670     -0.03466     -0.08535     -0.03961     -0.02391
   
 Atom       C46          C47          C48          C49          C50     
 Charge   -0.16734     -0.10244     -0.11061     -0.13479     -0.12291
   
 Atom       C51          C52          C53          C54          C55     
 Charge   -0.11968     -0.05337     -0.16601     -0.10394     -0.14037
   
 Atom       C56          C57          C58          C59          C60     
 Charge   -0.15630     -0.01268     -0.15952     -0.09536     -0.13459
   
 Atom       C61          C62          C63          C64          C65     
 Charge   -0.18779     -0.07071     -0.14666     -0.11669     -0.19180
   
 Atom       C66          C67          C68          C69          C70     
 Charge    0.25976     -0.13006     -0.05092     -0.15280     -0.21593
   
 Atom       N71          S72          O73          O74          C75     
 Charge   -0.29939      0.63043     -0.40096     -0.44731      0.56141
   
 Atom       C76          C77          C78          C79          N80     
 Charge   -0.40731      0.19451     -0.38514      0.38502     -0.59417
   
 Atom       N81          C82          C83          C84          C85     
 Charge    0.02730     -0.03836     -0.23221     -0.16112      0.01711
   
 Atom       H86          H87          H88          H89          H90     
 Charge    0.10473      0.13020      0.12719      0.13647      0.11940
   
 Atom       H91          H92          H93          H94          H95     
 Charge    0.12938      0.19797      0.14327      0.12740      0.11560
   
 Atom       H96          H97          H98          H99          H100    
 Charge    0.36346      0.08920      0.13588      0.09083      0.10647
   
 Atom       H101         H102         H103         H104         H105    
 Charge    0.09476      0.09912      0.08261      0.13336      0.06618
   
 Atom       H106         H107         H108         H109         H110    
 Charge    0.11267      0.08005      0.04998      0.12740      0.10431
   
 Atom       H111         H112         H113         H114         H115    
 Charge    0.10722      0.12189      0.11843      0.11595      0.10557
   
 Atom       H116         H117         H118         H119         H120    
 Charge    0.13351      0.10930      0.11152      0.12756      0.07257
   
 Atom       H121         H122         H123         H124         H125    
 Charge    0.12367      0.11198      0.11209      0.12637      0.10344
   
 Atom       H126         H127         H128         H129         H130    
 Charge    0.10393      0.12838      0.11983      0.09986      0.09675
   
 Atom       H131         H132         H133         H134         H135    
 Charge    0.12927      0.20922      0.16348      0.08135      0.14136
   
 Atom       H136         H137         H138         H139         H140    
 Charge    0.04841      0.20116      0.14961      0.16740      0.15278
   
 Atom       H141    
 Charge    0.14119
  
  sum of atomic charges:     0.000000
   
 RMS Error   8.88E-04 hartrees
 
  Peak memory usage:    584 Mb
  
  end of program ch
   
 Time(ch)  user:       17.0  user+sys:       18.0  wallclock:       60.9
  
  start of program post
  
  Writing input files for PBF
  Peak memory usage:    534 Mb
  
  end of program post
   
 Time(post)  user:        0.0  user+sys:        0.0  wallclock:        0.7

  start of program pbf

Pbf Version 4.00

Molecular surface area:      775.06316   [A2]
Reaction field energy:       -13.78935   [kT]
  Peak memory usage: 557 Mb

  end of program pbf

 Time(pbf)  user:       12.4  user+sys:       12.5  wallclock:       34.0
  
  start of program solv
  
   number of surface charges from PBF   13194
   sum of surface charges     -0.00021
   
  nuclear repulsion energy.......   17577.539784606 hartrees
  Peak memory usage:    694 Mb
  
  end of program solv
   
 Time(solv)  user:       36.0  user+sys:       36.0  wallclock:       94.6
  
  start of program scf
  
  
       i  u  d  i  g                   
       t  p  i  c  r                                 RMS    maximum
       e  d  i  u  i                       energy  density   DIIS  
       r  t  s  t  d       total energy    change  change    error 
  
etot    1  N  N  1  U   -4711.55748924447           6.2E-05  8.4E-04
etot    2  N  Y  1  U   -4711.55773899712  2.5E-04  2.5E-05  1.0E-03
etot    3  N  Y  1  U   -4711.55829807074  5.6E-04  8.8E-06  4.9E-04
etot    4  N  Y  1  U   -4711.55839313739  9.5E-05  3.9E-06  1.6E-04
etot    5  N  N  1  U   -4711.55840895686  1.6E-05  0.0E+00  0.0E+00
  
  
 Energy components, in hartrees:
   (A)  Total zero-electron terms....   17579.25931008613
   (B)    Nuclear-nuclear............   17577.53978460618
   (C)    Nuclear-solvent............       1.71952547995
   (E)  Total one-electron terms.....  -41499.12458009469
   (F)    Electron-nuclear...........  -46171.84995837617
   (G)    Electron-solvent...........      -1.75081570826
   (H)    Kinetic....................    4674.47619398975
   (I)  Total two-electron terms.....   19208.30686105169
   (J)    Coulomb....................   19783.44378111881
   (K)    Exchange+Correlation.......    -575.13692006712
   (L)  Electronic energy............  -22290.81771904299  (E+I)
   (N)  Total quantum mech. energy...   -4711.55840895686  (A+L)
   (O)  Gas phase energy.............   -4711.52803342303
   (P)  Solution phase energy........   -4711.54276384271  (Q+R+S)
   (Q)    Total solute energy........   -4711.52711872856  (N-C-G)
   (R)    Total solvent energy.......      -0.01564511415  (C/2+G/2)
   (S)    Solute cavity energy.......       0.00000000000
   (U)  Reorganization energy........       0.00091469448  (Q-O)
   (V)  Solvation energy.............      -0.01473041968  (P-O)
  
 SCFE:  Solution phase energy: DFT(b3lyp)      -4711.54276384271 hartrees
        SCF iterations:   5
  
 
 HOMO energy:    -0.20880
 LUMO energy:    -0.08741
 
  Orbital energies (hartrees): 
   -89.11836   -77.22033   -66.11262   -66.11219   -19.18384   -19.18110
   -19.15225   -19.15099   -19.10028   -19.09821   -14.38390   -14.37342
   -14.35413   -10.28535   -10.25997   -10.25541   -10.25506   -10.24707
   -10.23602   -10.23262   -10.21643   -10.21383   -10.21342   -10.21043
   -10.21003   -10.20728   -10.20693   -10.20398   -10.20299   -10.20248
   -10.20126   -10.20098   -10.19935   -10.19842   -10.19817   -10.19797
   -10.19565   -10.19548   -10.19531   -10.19511   -10.19412   -10.19400
   -10.19320   -10.19072   -10.19072   -10.18987   -10.18916   -10.18903
   -10.18848   -10.18812   -10.18810   -10.18796   -10.18779   -10.18726
   -10.18725   -10.18698   -10.18687   -10.18645   -10.18585   -10.18582
   -10.18578   -10.18483   -10.18387   -10.18373   -10.18367   -10.18290
   -10.18207   -10.18112   -10.18104   -10.18094   -10.17994   -10.17920
   -10.17902   -10.17899   -10.17857   -10.17640   -10.17571   -10.17519
   -10.17332   -10.17247   -10.17186   -10.17151   -10.16642   -10.16572
   -10.16520    -8.14485    -6.66470    -6.10984    -6.10879    -6.10770
    -5.25940    -5.25878    -4.82967    -4.82814    -4.82624    -3.61847
    -3.61804    -3.61778    -3.61766    -3.61734    -3.61719    -1.11878
    -1.09191    -1.04866    -1.00760    -0.99411    -0.97558    -0.96636
    -0.94853    -0.92898    -0.87657    -0.86388    -0.86336    -0.84268
    -0.84118    -0.83921    -0.83552    -0.83360    -0.83116    -0.82025
    -0.81631    -0.81113    -0.79659    -0.79274    -0.79177    -0.77514
    -0.75802    -0.75341    -0.74798    -0.74743    -0.74257    -0.74105
    -0.74099    -0.73994    -0.73716    -0.73555    -0.73470    -0.73306
    -0.73264    -0.73131    -0.73025    -0.72931    -0.72853    -0.72621
    -0.70894    -0.70802    -0.66191    -0.64898    -0.64556    -0.62682
    -0.62344    -0.61810    -0.61384    -0.60727    -0.60691    -0.60087
    -0.59737    -0.59637    -0.59605    -0.59562    -0.59242    -0.59112
    -0.58819    -0.58695    -0.58515    -0.58355    -0.58262    -0.58055
    -0.57871    -0.57750    -0.57574    -0.56851    -0.56330    -0.56086
    -0.54295    -0.53202    -0.53116    -0.52635    -0.52202    -0.51832
    -0.50751    -0.50653    -0.50420    -0.50275    -0.50162    -0.50085
    -0.49819    -0.49548    -0.48808    -0.48407    -0.47338    -0.47186
    -0.46967    -0.46877    -0.46470    -0.46214    -0.45799    -0.45698
    -0.45483    -0.45283    -0.44896    -0.44785    -0.44605    -0.44542
    -0.44402    -0.44233    -0.44104    -0.43907    -0.43757    -0.43576
    -0.43562    -0.43381    -0.43127    -0.43049    -0.42947    -0.42918
    -0.42725    -0.42712    -0.42598    -0.42522    -0.42388    -0.41954
    -0.41834    -0.41758    -0.41701    -0.41652    -0.41569    -0.41322
    -0.41225    -0.40846    -0.40811    -0.40616    -0.40437    -0.40372
    -0.39569    -0.39153    -0.38875    -0.38714    -0.38631    -0.38293
    -0.38088    -0.37965    -0.37384    -0.37302    -0.36825    -0.36358
    -0.36279    -0.35960    -0.35764    -0.35748    -0.35588    -0.35423
    -0.35145    -0.34951    -0.34894    -0.34614    -0.34575    -0.34237
    -0.34096    -0.34022    -0.33604    -0.33567    -0.33532    -0.33148
    -0.33000    -0.32813    -0.32726    -0.32536    -0.32359    -0.32137
    -0.32046    -0.31699    -0.31148    -0.30877    -0.30571    -0.29905
    -0.29760    -0.29573    -0.29089    -0.28799    -0.28717    -0.28583
    -0.28393    -0.28069    -0.27607    -0.27557    -0.27483    -0.27141
    -0.26226    -0.25758    -0.25547    -0.25299    -0.25021    -0.24932
    -0.24838    -0.24684    -0.24506    -0.24329    -0.23964    -0.23878
    -0.23790    -0.23752    -0.23527    -0.23423    -0.23404    -0.23156
    -0.22321    -0.20880    -0.08741    -0.05193    -0.04780    -0.03188
    -0.02867    -0.01877    -0.01354    -0.01274    -0.01166    -0.00965
 
  Peak memory usage:    839 Mb
  
  end of program scf
   
 Time(scf)  user:     2794.0  user+sys:     2824.0  wallclock:     5029.9
  
  start of program sole
  
    SCRF                   solvation energy
  iteration          Hartrees            kcal/mol
     0               0.0000000            0.0000
     1              -0.0147304           -9.2435
  
  solvation energy not yet converged... 
  
  Peak memory usage:    634 Mb
  
  end of program sole
   
 Time(sole)  user:        0.0  user+sys:        0.0  wallclock:        0.3
  
  start of program ch
  
  gridpoints used for charge fit        15805
    out of a possible maximum of        15805
  
   Electrostatic potential fitting constrained to reproduce
     total charge:                yes
     dipole moment:               no 
     traceless quadrupole moment: no 
     traceless octapole moment:   no 
  
  Atomic charges from electrostatic potential: 
   
 Atom       C1           C2           C3           C4           C5      
 Charge   -0.11059      0.04038     -0.16546      0.13202     -0.03336
   
 Atom       C6           C7           C8           C9           C10     
 Charge   -0.19644     -0.28412     -0.11196      0.04975     -0.10125
   
 Atom       C11          O12          Si13         C14          C15     
 Charge    0.09030     -0.25103     -0.09846      0.18623      0.12435
   
 Atom       C16          C17          C18          C19          C20     
 Charge    0.20620     -0.21129     -0.44715     -0.24238      0.04006
   
 Atom       Si21         O22          C23          C24          P25     
 Charge    0.21848     -0.19879     -0.14133     -0.10388      0.78674
   
 Atom       O26          O27          C28          C29          C30     
 Charge   -0.53474     -0.56546      0.09018      0.09798      0.22879
   
 Atom       C31          C32          C33          C34          C35     
 Charge    0.06436     -0.10036     -0.10840     -0.03309     -0.21259
   
 Atom       C36          C37          C38          C39          C40     
 Charge   -0.13125     -0.13868     -0.24269     -0.15680     -0.06900
   
 Atom       C41          C42          C43          C44          C45     
 Charge   -0.23227     -0.03177     -0.08538     -0.04799     -0.02702
   
 Atom       C46          C47          C48          C49          C50     
 Charge   -0.17616     -0.11090     -0.11406     -0.14339     -0.12951
   
 Atom       C51          C52          C53          C54          C55     
 Charge   -0.12451     -0.05741     -0.17362     -0.10732     -0.14764
   
 Atom       C56          C57          C58          C59          C60     
 Charge   -0.16243     -0.02245     -0.17051     -0.09925     -0.14201
   
 Atom       C61          C62          C63          C64          C65     
 Charge   -0.19333     -0.07702     -0.15164     -0.11887     -0.20157
   
 Atom       C66          C67          C68          C69          C70     
 Charge    0.28284     -0.14794     -0.04529     -0.15845     -0.25576
   
 Atom       N71          S72          O73          O74          C75     
 Charge   -0.26956      0.64171     -0.43116     -0.46089      0.57298
   
 Atom       C76          C77          C78          C79          N80     
 Charge   -0.41412      0.19856     -0.38890      0.39484     -0.62099
   
 Atom       N81          C82          C83          C84          C85     
 Charge    0.03468     -0.03716     -0.23248     -0.16827      0.00885
   
 Atom       H86          H87          H88          H89          H90     
 Charge    0.10478      0.13808      0.13390      0.14277      0.12675
   
 Atom       H91          H92          H93          H94          H95     
 Charge    0.13266      0.20551      0.15019      0.13462      0.12319
   
 Atom       H96          H97          H98          H99          H100    
 Charge    0.34839      0.09057      0.14057      0.09142      0.11030
   
 Atom       H101         H102         H103         H104         H105    
 Charge    0.09951      0.10261      0.08496      0.13642      0.06487
   
 Atom       H106         H107         H108         H109         H110    
 Charge    0.11653      0.08425      0.05330      0.13411      0.11246
   
 Atom       H111         H112         H113         H114         H115    
 Charge    0.11293      0.12912      0.12561      0.12267      0.10811
   
 Atom       H116         H117         H118         H119         H120    
 Charge    0.13867      0.11566      0.11837      0.13343      0.07356
   
 Atom       H121         H122         H123         H124         H125    
 Charge    0.13150      0.11887      0.11906      0.13259      0.10945
   
 Atom       H126         H127         H128         H129         H130    
 Charge    0.10830      0.13494      0.12834      0.10353      0.09670
   
 Atom       H131         H132         H133         H134         H135    
 Charge    0.13572      0.22379      0.16758      0.08541      0.14755
   
 Atom       H136         H137         H138         H139         H140    
 Charge    0.05510      0.19673      0.15585      0.17509      0.16383
   
 Atom       H141    
 Charge    0.14847
  
  sum of atomic charges:     0.000000
   
 RMS Error   9.02E-04 hartrees
 
  Peak memory usage:    583 Mb
  
  end of program ch
   
 Time(ch)  user:       17.0  user+sys:       18.0  wallclock:       33.6
  
  start of program post
  
  Writing input files for PBF
  Peak memory usage:    534 Mb
  
  end of program post
   
 Time(post)  user:        0.0  user+sys:        0.0  wallclock:        0.4

  start of program pbf

Pbf Version 4.00

Molecular surface area:      775.06316   [A2]
Reaction field energy:       -15.93840   [kT]
  Peak memory usage: 557 Mb

  end of program pbf

 Time(pbf)  user:       12.2  user+sys:       12.3  wallclock:       18.9
  
  start of program solv
  
   number of surface charges from PBF   13194
   sum of surface charges     -0.00022
   
  nuclear repulsion energy.......   17577.539784606 hartrees
  Peak memory usage:    694 Mb
  
  end of program solv
   
 Time(solv)  user:       36.0  user+sys:       36.0  wallclock:       53.5
  
  start of program scf
  
  
       i  u  d  i  g                   
       t  p  i  c  r                                 RMS    maximum
       e  d  i  u  i                       energy  density   DIIS  
       r  t  s  t  d       total energy    change  change    error 
  
etot    1  N  N  1  U   -4711.56071208922           8.8E-06  1.2E-04
etot    2  N  N  1  U   -4711.56068459182 -2.7E-05  0.0E+00  0.0E+00
  
  
 Energy components, in hartrees:
   (A)  Total zero-electron terms....   17579.45038726436
   (B)    Nuclear-nuclear............   17577.53978460618
   (C)    Nuclear-solvent............       1.91060265818
   (E)  Total one-electron terms.....  -41499.79872494419
   (F)    Electron-nuclear...........  -46172.35101226374
   (G)    Electron-solvent...........      -1.94457077919
   (H)    Kinetic....................    4674.49685809874
   (I)  Total two-electron terms.....   19208.78765308801
   (J)    Coulomb....................   19783.92789939166
   (K)    Exchange+Correlation.......    -575.14024630366
   (L)  Electronic energy............  -22291.01107185618  (E+I)
   (N)  Total quantum mech. energy...   -4711.56068459182  (A+L)
   (O)  Gas phase energy.............   -4711.52803342303
   (P)  Solution phase energy........   -4711.54370053132  (Q+R+S)
   (Q)    Total solute energy........   -4711.52671647081  (N-C-G)
   (R)    Total solvent energy.......      -0.01698406051  (C/2+G/2)
   (S)    Solute cavity energy.......       0.00000000000
   (U)  Reorganization energy........       0.00131695222  (Q-O)
   (V)  Solvation energy.............      -0.01566710828  (P-O)
  
 SCFE:  Solution phase energy: DFT(b3lyp)      -4711.54370053132 hartrees
        SCF iterations:   2
  
 
 HOMO energy:    -0.22668
 LUMO energy:    -0.08635
 
  Orbital energies (hartrees): 
   -72.92470   -62.49967   -45.14219   -36.64765   -36.23766   -35.31624
   -27.16849   -20.18008   -19.88665   -18.87725   -15.48082   -14.59483
   -14.57165   -13.89321   -13.26329   -13.23952   -12.21856   -12.04276
   -11.74052   -11.66951   -11.25153   -11.01002   -10.90874   -10.82733
   -10.81479   -10.71245   -10.70579   -10.63836   -10.59413   -10.56736
   -10.43575   -10.37193   -10.35593   -10.28393   -10.27854   -10.27273
   -10.26478   -10.23112   -10.22887   -10.21486   -10.15070   -10.14692
   -10.12211   -10.11642   -10.11166   -10.10359   -10.08151   -10.07372
   -10.05569   -10.02395   -10.02033   -10.01503    -9.98174    -9.97541
    -9.95252    -9.94822    -9.93168    -9.93141    -9.92340    -9.90135
    -9.87507    -9.86849    -9.80744    -9.76125    -9.75927    -9.74174
    -9.69869    -9.66652    -9.65604    -9.62005    -9.52374    -9.50619
    -9.41735    -9.40882    -9.38785    -9.33942    -9.31916    -9.27315
    -9.15134    -9.12378    -9.08167    -9.07173    -8.95618    -8.75869
    -8.70851    -8.68708    -8.62884    -8.62784    -8.51556    -8.20089
    -7.99116    -7.94379    -7.47628    -7.20948    -7.18073    -6.47242
    -6.20366    -6.18665    -5.58825    -5.20856    -4.24342    -1.09347
    -0.99362    -0.94428    -0.89172    -0.89115    -0.88079    -0.87202
    -0.86103    -0.86097    -0.84398    -0.84225    -0.82052    -0.80623
    -0.80006    -0.79906    -0.76739    -0.76492    -0.75996    -0.75965
    -0.75791    -0.75368    -0.75254    -0.74723    -0.74569    -0.74564
    -0.74180    -0.73930    -0.73887    -0.73662    -0.73447    -0.73435
    -0.72461    -0.72251    -0.71427    -0.71365    -0.70359    -0.68824
    -0.68030    -0.67632    -0.67470    -0.67120    -0.66956    -0.66639
    -0.66543    -0.66457    -0.63463    -0.63001    -0.62613    -0.61562
    -0.61538    -0.59084    -0.58889    -0.58531    -0.58468    -0.57503
    -0.57207    -0.56907    -0.56857    -0.56847    -0.56825    -0.56576
    -0.56396    -0.56368    -0.56311    -0.56294    -0.56289    -0.56040
    -0.55707    -0.55394    -0.54973    -0.54816    -0.54521    -0.54511
    -0.53850    -0.53505    -0.52740    -0.52689    -0.52285    -0.51864
    -0.51512    -0.51450    -0.51266    -0.51064    -0.51046    -0.50448
    -0.49900    -0.49464    -0.49371    -0.48866    -0.48734    -0.48716
    -0.48660    -0.48535    -0.47867    -0.47790    -0.47755    -0.47447
    -0.47372    -0.47242    -0.47042    -0.47003    -0.46958    -0.46925
    -0.46864    -0.46427    -0.46120    -0.46118    -0.46037    -0.45414
    -0.45304    -0.45270    -0.45107    -0.45073    -0.45034    -0.44973
    -0.44836    -0.44675    -0.44585    -0.44332    -0.44280    -0.44253
    -0.44239    -0.43871    -0.43847    -0.43704    -0.43547    -0.43420
    -0.43259    -0.42884    -0.42816    -0.42802    -0.42419    -0.42311
    -0.42273    -0.42191    -0.42089    -0.41963    -0.41734    -0.41695
    -0.41622    -0.41618    -0.41556    -0.41288    -0.41288    -0.41020
    -0.40916    -0.40916    -0.40911    -0.40886    -0.40819    -0.40728
    -0.40719    -0.40533    -0.40421    -0.40280    -0.40103    -0.39646
    -0.39554    -0.39295    -0.39015    -0.38961    -0.38366    -0.38325
    -0.38270    -0.38085    -0.37940    -0.37745    -0.37631    -0.37435
    -0.37196    -0.36766    -0.36693    -0.36666    -0.36014    -0.35921
    -0.35400    -0.35165    -0.35143    -0.34452    -0.34297    -0.34209
    -0.33247    -0.33121    -0.32770    -0.32561    -0.32210    -0.31842
    -0.30828    -0.30481    -0.30090    -0.29998    -0.28725    -0.28448
    -0.28024    -0.27628    -0.26721    -0.26508    -0.26352    -0.26176
    -0.25978    -0.25468    -0.25378    -0.25277    -0.25064    -0.24530
    -0.23354    -0.22668    -0.08635    -0.05142    -0.04709    -0.03173
    -0.02821    -0.01834    -0.01322    -0.01243    -0.01119    -0.00943
 
  Peak memory usage:    839 Mb
  
  end of program scf
   
 Time(scf)  user:      715.0  user+sys:      723.0  wallclock:     1133.2
  
  start of program sole
  
    SCRF                   solvation energy
  iteration          Hartrees            kcal/mol
     0               0.0000000            0.0000
     1              -0.0147304           -9.2435
     2              -0.0156671           -9.8313
  
  solvation energy not yet converged... 
  
  Peak memory usage:    634 Mb
  
  end of program sole
   
 Time(sole)  user:        0.0  user+sys:        0.0  wallclock:        0.3
  
  start of program ch
  
  gridpoints used for charge fit        15805
    out of a possible maximum of        15805
  
   Electrostatic potential fitting constrained to reproduce
     total charge:                yes
     dipole moment:               no 
     traceless quadrupole moment: no 
     traceless octapole moment:   no 
  
  Atomic charges from electrostatic potential: 
   
 Atom       C1           C2           C3           C4           C5      
 Charge   -0.11102      0.03980     -0.16541      0.13280     -0.03308
   
 Atom       C6           C7           C8           C9           C10     
 Charge   -0.19716     -0.28506     -0.11167      0.04757     -0.10212
   
 Atom       C11          O12          Si13         C14          C15     
 Charge    0.09142     -0.24976     -0.10067      0.18753      0.12156
   
 Atom       C16          C17          C18          C19          C20     
 Charge    0.20677     -0.21140     -0.44857     -0.24320      0.04046
   
 Atom       Si21         O22          C23          C24          P25     
 Charge    0.21716     -0.19626     -0.14062     -0.10238      0.78249
   
 Atom       O26          O27          C28          C29          C30     
 Charge   -0.53243     -0.56455      0.09060      0.09788      0.22946
   
 Atom       C31          C32          C33          C34          C35     
 Charge    0.06303     -0.10217     -0.11017     -0.03370     -0.21368
   
 Atom       C36          C37          C38          C39          C40     
 Charge   -0.13163     -0.13926     -0.24346     -0.15757     -0.06721
   
 Atom       C41          C42          C43          C44          C45     
 Charge   -0.23205     -0.03146     -0.08590     -0.04845     -0.02861
   
 Atom       C46          C47          C48          C49          C50     
 Charge   -0.17805     -0.11032     -0.11367     -0.14393     -0.12964
   
 Atom       C51          C52          C53          C54          C55     
 Charge   -0.12460     -0.05789     -0.17382     -0.10732     -0.14626
   
 Atom       C56          C57          C58          C59          C60     
 Charge   -0.16363     -0.02509     -0.17131     -0.09849     -0.14205
   
 Atom       C61          C62          C63          C64          C65     
 Charge   -0.19317     -0.07644     -0.15147     -0.11633     -0.20203
   
 Atom       C66          C67          C68          C69          C70     
 Charge    0.28016     -0.15064     -0.04308     -0.15683     -0.26136
   
 Atom       N71          S72          O73          O74          C75     
 Charge   -0.27098      0.63575     -0.43259     -0.45759      0.57017
   
 Atom       C76          C77          C78          C79          N80     
 Charge   -0.41359      0.20101     -0.38693      0.39522     -0.62506
   
 Atom       N81          C82          C83          C84          C85     
 Charge    0.03355     -0.03110     -0.22885     -0.16747      0.00773
   
 Atom       H86          H87          H88          H89          H90     
 Charge    0.10492      0.13873      0.13432      0.14325      0.12742
   
 Atom       H91          H92          H93          H94          H95     
 Charge    0.13270      0.20625      0.15076      0.13520      0.12378
   
 Atom       H96          H97          H98          H99          H100    
 Charge    0.34769      0.09045      0.14067      0.09120      0.11045
   
 Atom       H101         H102         H103         H104         H105    
 Charge    0.10016      0.10307      0.08510      0.13578      0.06451
   
 Atom       H106         H107         H108         H109         H110    
 Charge    0.11700      0.08435      0.05432      0.13502      0.11340
   
 Atom       H111         H112         H113         H114         H115    
 Charge    0.11362      0.12967      0.12634      0.12340      0.10822
   
 Atom       H116         H117         H118         H119         H120    
 Charge    0.13874      0.11644      0.11915      0.13394      0.07334
   
 Atom       H121         H122         H123         H124         H125    
 Charge    0.13213      0.11952      0.11987      0.13307      0.10992
   
 Atom       H126         H127         H128         H129         H130    
 Charge    0.10897      0.13534      0.12936      0.10293      0.09602
   
 Atom       H131         H132         H133         H134         H135    
 Charge    0.13596      0.22529      0.16809      0.08565      0.14865
   
 Atom       H136         H137         H138         H139         H140    
 Charge    0.05605      0.19592      0.15554      0.17538      0.16438
   
 Atom       H141    
 Charge    0.14871
  
  sum of atomic charges:     0.000000
   
 RMS Error   9.02E-04 hartrees
 
  Peak memory usage:    583 Mb
  
  end of program ch
   
 Time(ch)  user:       18.0  user+sys:       19.0  wallclock:       26.3
  
  start of program post
  
  Writing input files for PBF
  Peak memory usage:    534 Mb
  
  end of program post
   
 Time(post)  user:        0.0  user+sys:        0.0  wallclock:        0.4

  start of program pbf

Pbf Version 4.00

Molecular surface area:      775.06316   [A2]
Reaction field energy:       -16.34373   [kT]
  Peak memory usage: 557 Mb

  end of program pbf

 Time(pbf)  user:       12.3  user+sys:       12.3  wallclock:       21.2
  
  start of program solv
  
   number of surface charges from PBF   13194
   sum of surface charges     -0.00023
   
  nuclear repulsion energy.......   17577.539784606 hartrees
  Peak memory usage:    694 Mb
  
  end of program solv
   
 Time(solv)  user:       36.0  user+sys:       36.0  wallclock:       58.8
  
  start of program scf
  
  
       i  u  d  i  g                   
       t  p  i  c  r                                 RMS    maximum
       e  d  i  u  i                       energy  density   DIIS  
       r  t  s  t  d       total energy    change  change    error 
  
etot    1  N  N  1  U   -4711.56108837396           1.5E-05  2.6E-04
etot    2  N  Y  1  U   -4711.56088864009 -2.0E-04  1.1E-05  6.9E-04
etot    3  N  Y  1  U   -4711.56112456428  2.4E-04  5.1E-07  2.1E-05
etot    4  N  N  1  U   -4711.56112487426  3.1E-07  0.0E+00  0.0E+00
  
  
 Energy components, in hartrees:
   (A)  Total zero-electron terms....   17579.50607022102
   (B)    Nuclear-nuclear............   17577.53978460618
   (C)    Nuclear-solvent............       1.96628561485
   (E)  Total one-electron terms.....  -41499.58969253235
   (F)    Electron-nuclear...........  -46172.06980279981
   (G)    Electron-solvent...........      -2.00055119810
   (H)    Kinetic....................    4674.48066146556
   (I)  Total two-electron terms.....   19208.52249743706
   (J)    Coulomb....................   19783.66074045287
   (K)    Exchange+Correlation.......    -575.13824301581
   (L)  Electronic energy............  -22291.06719509529  (E+I)
   (N)  Total quantum mech. energy...   -4711.56112487426  (A+L)
   (O)  Gas phase energy.............   -4711.52803342303
   (P)  Solution phase energy........   -4711.54399208263  (Q+R+S)
   (Q)    Total solute energy........   -4711.52685929101  (N-C-G)
   (R)    Total solvent energy.......      -0.01713279163  (C/2+G/2)
   (S)    Solute cavity energy.......       0.00000000000
   (U)  Reorganization energy........       0.00117413203  (Q-O)
   (V)  Solvation energy.............      -0.01595865960  (P-O)
  
 SCFE:  Solution phase energy: DFT(b3lyp)      -4711.54399208263 hartrees
        SCF iterations:   4
  
 
 HOMO energy:    -0.20868
 LUMO energy:    -0.08706
 
  Orbital energies (hartrees): 
   -89.11862   -77.22023   -66.11267   -66.11215   -19.18374   -19.18119
   -19.15438   -19.15312   -19.09987   -19.09823   -14.38365   -14.37234
   -14.35460   -10.28451   -10.26022   -10.25528   -10.25468   -10.24708
   -10.23611   -10.23240   -10.21680   -10.21435   -10.21260   -10.21056
   -10.20968   -10.20730   -10.20698   -10.20338   -10.20281   -10.20229
   -10.20094   -10.20090   -10.19911   -10.19864   -10.19772   -10.19758
   -10.19545   -10.19527   -10.19510   -10.19474   -10.19427   -10.19388
   -10.19289   -10.19081   -10.19065   -10.18979   -10.18919   -10.18898
   -10.18855   -10.18825   -10.18824   -10.18811   -10.18780   -10.18737
   -10.18735   -10.18725   -10.18692   -10.18662   -10.18619   -10.18610
   -10.18606   -10.18467   -10.18436   -10.18401   -10.18374   -10.18289
   -10.18203   -10.18128   -10.18119   -10.18096   -10.18027   -10.17947
   -10.17932   -10.17895   -10.17869   -10.17638   -10.17536   -10.17525
   -10.17368   -10.17266   -10.17208   -10.17167   -10.16658   -10.16579
   -10.16523    -8.14521    -6.66461    -6.11017    -6.10915    -6.10804
    -5.25946    -5.25875    -4.82957    -4.82805    -4.82615    -3.61852
    -3.61809    -3.61775    -3.61771    -3.61731    -3.61716    -1.11987
    -1.09181    -1.04860    -1.00901    -0.99391    -0.97544    -0.96675
    -0.94820    -0.92880    -0.87650    -0.86346    -0.86331    -0.84287
    -0.84134    -0.83944    -0.83551    -0.83384    -0.83140    -0.82013
    -0.81666    -0.81101    -0.79659    -0.79260    -0.79168    -0.77489
    -0.75794    -0.75299    -0.74810    -0.74751    -0.74249    -0.74116
    -0.74113    -0.74005    -0.73712    -0.73553    -0.73465    -0.73324
    -0.73280    -0.73143    -0.73051    -0.72932    -0.72866    -0.72645
    -0.70882    -0.70803    -0.66184    -0.64888    -0.64587    -0.62673
    -0.62331    -0.61799    -0.61384    -0.60721    -0.60683    -0.60059
    -0.59745    -0.59632    -0.59594    -0.59570    -0.59250    -0.59120
    -0.58821    -0.58712    -0.58482    -0.58372    -0.58284    -0.58069
    -0.57874    -0.57742    -0.57597    -0.56841    -0.56321    -0.56084
    -0.54286    -0.53202    -0.53096    -0.52645    -0.52192    -0.51884
    -0.50754    -0.50652    -0.50429    -0.50273    -0.50181    -0.50093
    -0.49837    -0.49542    -0.48803    -0.48455    -0.47317    -0.47187
    -0.46961    -0.46875    -0.46476    -0.46275    -0.45778    -0.45720
    -0.45484    -0.45281    -0.44893    -0.44785    -0.44603    -0.44546
    -0.44406    -0.44235    -0.44121    -0.43919    -0.43750    -0.43577
    -0.43569    -0.43387    -0.43131    -0.43034    -0.42948    -0.42913
    -0.42732    -0.42723    -0.42590    -0.42521    -0.42371    -0.41957
    -0.41836    -0.41768    -0.41712    -0.41664    -0.41600    -0.41322
    -0.41218    -0.40843    -0.40799    -0.40584    -0.40447    -0.40388
    -0.39560    -0.39175    -0.38895    -0.38723    -0.38632    -0.38303
    -0.38097    -0.37969    -0.37369    -0.37282    -0.36823    -0.36354
    -0.36266    -0.35951    -0.35778    -0.35759    -0.35582    -0.35448
    -0.35146    -0.34953    -0.34892    -0.34635    -0.34586    -0.34289
    -0.34104    -0.34018    -0.33614    -0.33583    -0.33547    -0.33149
    -0.33005    -0.32843    -0.32749    -0.32578    -0.32467    -0.32146
    -0.32041    -0.31697    -0.31261    -0.30892    -0.30567    -0.29931
    -0.29765    -0.29578    -0.29095    -0.28808    -0.28727    -0.28595
    -0.28393    -0.28079    -0.27622    -0.27571    -0.27481    -0.27148
    -0.26223    -0.25729    -0.25518    -0.25311    -0.25042    -0.24945
    -0.24856    -0.24707    -0.24531    -0.24346    -0.23969    -0.23883
    -0.23787    -0.23765    -0.23534    -0.23433    -0.23418    -0.23155
    -0.22315    -0.20868    -0.08706    -0.05191    -0.04807    -0.03189
    -0.02898    -0.01870    -0.01360    -0.01286    -0.01153    -0.00966
 
  Peak memory usage:    839 Mb
  
  end of program scf
   
 Time(scf)  user:     2097.0  user+sys:     2120.0  wallclock:     3344.5
  
  start of program sole
  
    SCRF                   solvation energy
  iteration          Hartrees            kcal/mol
     0               0.0000000            0.0000
     1              -0.0147304           -9.2435
     2              -0.0156671           -9.8313
     3              -0.0159587          -10.0142
  
  solvation energy not yet converged... 
  
  Peak memory usage:    634 Mb
  
  end of program sole
   
 Time(sole)  user:        0.0  user+sys:        0.0  wallclock:        0.3
  
  start of program ch
  
  gridpoints used for charge fit        15805
    out of a possible maximum of        15805
  
   Electrostatic potential fitting constrained to reproduce
     total charge:                yes
     dipole moment:               no 
     traceless quadrupole moment: no 
     traceless octapole moment:   no 
  
  Atomic charges from electrostatic potential: 
   
 Atom       C1           C2           C3           C4           C5      
 Charge   -0.11059      0.04003     -0.16580      0.13252     -0.03301
   
 Atom       C6           C7           C8           C9           C10     
 Charge   -0.19711     -0.28538     -0.11192      0.04816     -0.10182
   
 Atom       C11          O12          Si13         C14          C15     
 Charge    0.09170     -0.25001     -0.10002      0.18658      0.12243
   
 Atom       C16          C17          C18          C19          C20     
 Charge    0.20676     -0.21134     -0.44876     -0.24301      0.04189
   
 Atom       Si21         O22          C23          C24          P25     
 Charge    0.21735     -0.19665     -0.14138     -0.10330      0.78310
   
 Atom       O26          O27          C28          C29          C30     
 Charge   -0.53333     -0.56383      0.09125      0.09800      0.22953
   
 Atom       C31          C32          C33          C34          C35     
 Charge    0.06381     -0.10140     -0.10932     -0.03369     -0.21346
   
 Atom       C36          C37          C38          C39          C40     
 Charge   -0.13146     -0.13893     -0.24327     -0.15718     -0.06808
   
 Atom       C41          C42          C43          C44          C45     
 Charge   -0.23163     -0.03147     -0.08533     -0.04842     -0.02758
   
 Atom       C46          C47          C48          C49          C50     
 Charge   -0.17726     -0.11113     -0.11404     -0.14395     -0.12975
   
 Atom       C51          C52          C53          C54          C55     
 Charge   -0.12479     -0.05785     -0.17384     -0.10764     -0.14762
   
 Atom       C56          C57          C58          C59          C60     
 Charge   -0.16311     -0.02465     -0.17141     -0.09894     -0.14250
   
 Atom       C61          C62          C63          C64          C65     
 Charge   -0.19347     -0.07701     -0.15196     -0.11806     -0.20212
   
 Atom       C66          C67          C68          C69          C70     
 Charge    0.28284     -0.14909     -0.04433     -0.15806     -0.26046
   
 Atom       N71          S72          O73          O74          C75     
 Charge   -0.26617      0.63880     -0.43381     -0.46029      0.57230
   
 Atom       C76          C77          C78          C79          N80     
 Charge   -0.41423      0.19954     -0.38792      0.39481     -0.62389
   
 Atom       N81          C82          C83          C84          C85     
 Charge    0.03499     -0.03558     -0.23078     -0.16840      0.00761
   
 Atom       H86          H87          H88          H89          H90     
 Charge    0.10478      0.13871      0.13426      0.14314      0.12740
   
 Atom       H91          H92          H93          H94          H95     
 Charge    0.13261      0.20606      0.15075      0.13537      0.12393
   
 Atom       H96          H97          H98          H99          H100    
 Charge    0.34715      0.09053      0.14056      0.09110      0.11033
   
 Atom       H101         H102         H103         H104         H105    
 Charge    0.09995      0.10282      0.08500      0.13613      0.06437
   
 Atom       H106         H107         H108         H109         H110    
 Charge    0.11678      0.08421      0.05384      0.13472      0.11339
   
 Atom       H111         H112         H113         H114         H115    
 Charge    0.11356      0.12959      0.12625      0.12331      0.10808
   
 Atom       H116         H117         H118         H119         H120    
 Charge    0.13869      0.11634      0.11917      0.13373      0.07336
   
 Atom       H121         H122         H123         H124         H125    
 Charge    0.13207      0.11950      0.11979      0.13303      0.10993
   
 Atom       H126         H127         H128         H129         H130    
 Charge    0.10880      0.13562      0.12909      0.10330      0.09617
   
 Atom       H131         H132         H133         H134         H135    
 Charge    0.13621      0.22482      0.16807      0.08573      0.14833
   
 Atom       H136         H137         H138         H139         H140    
 Charge    0.05589      0.19618      0.15623      0.17596      0.16468
   
 Atom       H141    
 Charge    0.14923
  
  sum of atomic charges:     0.000000
   
 RMS Error   9.03E-04 hartrees
 
  Peak memory usage:    583 Mb
  
  end of program ch
   
 Time(ch)  user:       17.0  user+sys:       17.0  wallclock:       28.1
  
  start of program post
  
  Writing input files for PBF
  Peak memory usage:    534 Mb
  
  end of program post
   
 Time(post)  user:        0.0  user+sys:        0.0  wallclock:        0.3

  start of program pbf

Pbf Version 4.00

Molecular surface area:      775.06316   [A2]
Reaction field energy:       -16.23862   [kT]
  Peak memory usage: 557 Mb

  end of program pbf

 Time(pbf)  user:       12.1  user+sys:       12.2  wallclock:       20.3
  
  start of program solv
  
   number of surface charges from PBF   13194
   sum of surface charges     -0.00022
   
  nuclear repulsion energy.......   17577.539784606 hartrees
  Peak memory usage:    694 Mb
  
  end of program solv
   
 Time(solv)  user:       36.0  user+sys:       36.0  wallclock:       60.9
  
  start of program scf
  
  
       i  u  d  i  g                   
       t  p  i  c  r                                 RMS    maximum
       e  d  i  u  i                       energy  density   DIIS  
       r  t  s  t  d       total energy    change  change    error 
  
etot    1  N  N  1  U   -4711.56102723325           1.0E-06  2.2E-05
etot    2  N  N  1  U   -4711.56102704053 -1.9E-07  0.0E+00  0.0E+00
  
  
 Energy components, in hartrees:
   (A)  Total zero-electron terms....   17579.48721689046
   (B)    Nuclear-nuclear............   17577.53978460618
   (C)    Nuclear-solvent............       1.94743228428
   (E)  Total one-electron terms.....  -41499.54823840271
   (F)    Electron-nuclear...........  -46172.04674547644
   (G)    Electron-solvent...........      -1.98156381420
   (H)    Kinetic....................    4674.48007088792
   (I)  Total two-electron terms.....   19208.49999447172
   (J)    Coulomb....................   19783.63813866456
   (K)    Exchange+Correlation.......    -575.13814419283
   (L)  Electronic energy............  -22291.04824393099  (E+I)
   (N)  Total quantum mech. energy...   -4711.56102704053  (A+L)
   (O)  Gas phase energy.............   -4711.52803342303
   (P)  Solution phase energy........   -4711.54396127557  (Q+R+S)
   (Q)    Total solute energy........   -4711.52689551061  (N-C-G)
   (R)    Total solvent energy.......      -0.01706576496  (C/2+G/2)
   (S)    Solute cavity energy.......       0.00000000000
   (U)  Reorganization energy........       0.00113791242  (Q-O)
   (V)  Solvation energy.............      -0.01592785254  (P-O)
  
 SCFE:  Solution phase energy: DFT(b3lyp)      -4711.54396127557 hartrees
        SCF iterations:   2
  
 
 HOMO energy:    -0.20870
 LUMO energy:    -0.08707
 
  Orbital energies (hartrees): 
   -89.11881   -77.22022   -66.11264   -66.11217   -19.18376   -19.18104
   -19.15515   -19.15248   -19.09992   -19.09825   -14.38344   -14.37240
   -14.35509   -10.28458   -10.26048   -10.25530   -10.25481   -10.24697
   -10.23624   -10.23238   -10.21649   -10.21410   -10.21268   -10.21036
   -10.20973   -10.20733   -10.20711   -10.20345   -10.20297   -10.20245
   -10.20088   -10.20081   -10.19909   -10.19871   -10.19776   -10.19755
   -10.19549   -10.19516   -10.19508   -10.19467   -10.19432   -10.19389
   -10.19269   -10.19080   -10.19065   -10.18975   -10.18914   -10.18888
   -10.18848   -10.18830   -10.18821   -10.18808   -10.18778   -10.18745
   -10.18735   -10.18720   -10.18692   -10.18662   -10.18616   -10.18609
   -10.18604   -10.18461   -10.18431   -10.18398   -10.18371   -10.18285
   -10.18206   -10.18124   -10.18123   -10.18098   -10.18032   -10.17946
   -10.17931   -10.17900   -10.17865   -10.17641   -10.17538   -10.17535
   -10.17383   -10.17272   -10.17212   -10.17161   -10.16651   -10.16576
   -10.16530    -8.14538    -6.66460    -6.11035    -6.10932    -6.10821
    -5.25944    -5.25877    -4.82956    -4.82804    -4.82614    -3.61850
    -3.61807    -3.61777    -3.61769    -3.61733    -3.61719    -1.11997
    -1.09182    -1.04858    -1.00907    -0.99382    -0.97544    -0.96694
    -0.94826    -0.92882    -0.87654    -0.86349    -0.86333    -0.84285
    -0.84135    -0.83942    -0.83549    -0.83385    -0.83140    -0.82012
    -0.81656    -0.81101    -0.79662    -0.79259    -0.79172    -0.77492
    -0.75795    -0.75302    -0.74809    -0.74752    -0.74245    -0.74115
    -0.74113    -0.74001    -0.73713    -0.73552    -0.73466    -0.73324
    -0.73279    -0.73141    -0.73053    -0.72931    -0.72867    -0.72645
    -0.70884    -0.70807    -0.66187    -0.64889    -0.64587    -0.62676
    -0.62334    -0.61798    -0.61385    -0.60723    -0.60686    -0.60058
    -0.59744    -0.59632    -0.59595    -0.59570    -0.59249    -0.59119
    -0.58819    -0.58712    -0.58478    -0.58369    -0.58285    -0.58070
    -0.57873    -0.57742    -0.57598    -0.56842    -0.56321    -0.56086
    -0.54286    -0.53202    -0.53098    -0.52645    -0.52192    -0.51883
    -0.50753    -0.50653    -0.50427    -0.50272    -0.50184    -0.50094
    -0.49837    -0.49543    -0.48804    -0.48452    -0.47319    -0.47187
    -0.46961    -0.46876    -0.46476    -0.46281    -0.45777    -0.45718
    -0.45483    -0.45281    -0.44893    -0.44783    -0.44603    -0.44545
    -0.44406    -0.44235    -0.44122    -0.43917    -0.43750    -0.43577
    -0.43569    -0.43386    -0.43130    -0.43033    -0.42948    -0.42915
    -0.42731    -0.42724    -0.42590    -0.42521    -0.42372    -0.41961
    -0.41837    -0.41768    -0.41711    -0.41662    -0.41595    -0.41324
    -0.41218    -0.40842    -0.40799    -0.40581    -0.40448    -0.40391
    -0.39560    -0.39171    -0.38892    -0.38723    -0.38631    -0.38303
    -0.38098    -0.37970    -0.37369    -0.37282    -0.36824    -0.36354
    -0.36268    -0.35953    -0.35778    -0.35759    -0.35581    -0.35444
    -0.35147    -0.34952    -0.34893    -0.34636    -0.34587    -0.34293
    -0.34104    -0.34017    -0.33614    -0.33581    -0.33545    -0.33147
    -0.33005    -0.32842    -0.32748    -0.32586    -0.32471    -0.32146
    -0.32041    -0.31697    -0.31266    -0.30895    -0.30567    -0.29930
    -0.29765    -0.29579    -0.29095    -0.28808    -0.28728    -0.28595
    -0.28393    -0.28079    -0.27632    -0.27574    -0.27482    -0.27150
    -0.26224    -0.25732    -0.25519    -0.25310    -0.25040    -0.24945
    -0.24856    -0.24704    -0.24529    -0.24348    -0.23968    -0.23883
    -0.23788    -0.23764    -0.23534    -0.23434    -0.23419    -0.23156
    -0.22316    -0.20870    -0.08707    -0.05192    -0.04810    -0.03190
    -0.02896    -0.01872    -0.01360    -0.01286    -0.01155    -0.00967
 
  Peak memory usage:    839 Mb
  
  end of program scf
   
 Time(scf)  user:      669.0  user+sys:      676.0  wallclock:      763.3
  
  start of program sole
  
    SCRF                   solvation energy
  iteration          Hartrees            kcal/mol
     0               0.0000000            0.0000
     1              -0.0147304           -9.2435
     2              -0.0156671           -9.8313
     3              -0.0159587          -10.0142
     4              -0.0159279           -9.9949
  
  stopping: solvation energy converged
  
  iterations:   4    sfinal:     -9.9949 kcal/mol
  
  Peak memory usage:    634 Mb
  
  end of program sole
   
 Time(sole)  user:        0.0  user+sys:        0.0  wallclock:        0.2
  
  start of program post
  
  Writing input files for PBF
  Peak memory usage:    534 Mb
  
  end of program post
   
 Time(post)  user:        0.0  user+sys:        0.0  wallclock:        1.6

 Total cpu seconds     user:   16439.000   user+sys:   16621.000
  
 Total elapsed time:    30985 seconds

Job Toru-SiPh3-Type-I-E-2-chkp4-unrestrained_SPE_B3LYP completed on tethys at Mon Nov 14 20:06:51 2016
