Job Type-I-Z-sulfonyl-bind-3-chkp-unrestrained-IRC-max-disp-SPE started on tethys at Fri Mar 24 13:24:06 2017
jobid: tethys-0-58d51df3

  +--------------------------------------------------------------------+
  |  Jaguar version 9.5, release  11                                   |
  |                                                                    |
  |  Copyright Schrodinger, Inc.                                       |
  |  All Rights Reserved.                                              |
  |                                                                    |
  |  The following have contributed to Jaguar (listed alphabetically): |
  |  Mike Beachy, Art Bochevarov, Dale Braden, Yixiang Cao,            |
  |  Chris Cortis, Rich Friesner, Bill Goddard, Hod Greeley,           |
  |  Tom Hughes, Leif Jacobson, Jean-Marc Langlois,                    |
  |  Daniel Mainz, Rob Murphy, Dean Philipp, Tom Pollard,              |
  |  Murco Ringnalda, Mark Watson, Haoyu Yu.                           |
  |                                                                    |
  |  Use of this program should be acknowledged in publications as:    |
  |                                                                    |
  |  Jaguar, version 9.5, Schrodinger, Inc., New York, NY, 2017.       |
  |                                                                    |
  |  A. D. Bochevarov, E. Harder, T. F. Hughes, J. R. Greenwood,       |
  |  D. A. Braden, D. M. Philipp, D. Rinaldo, M. D. Halls,             |
  |  J. Zhang, R. A. Friesner, "Jaguar: A High-Performance Quantum     |
  |  Chemistry Software Program with Strengths in Life and Materials   |
  |  Sciences", Int. J. Quantum Chem., 2013, 113(18), 2110-2142.       |
  +--------------------------------------------------------------------+
  
  start of program pre
  
  Job name: Type-I-Z-sulfonyl-bind-3-chkp-unrestrained-IRC-max-disp-SPE
  Executables used: /usr/local/shared/schrodinger/current/jaguar-v9.5/bin/Linux-x86_64
  Temporary files : /scratch/ab2144/Type-I-Z-sulfonyl-bind-3-chkp-unrestrained-IRC-max-disp-SPE
  Maestro file (input):  Type-I-Z-sulfonyl-bind-3-chkp-unrestrained-IRC-max-disp-SPE.mae
  Maestro file (output): Type-I-Z-sulfonyl-bind-3-chkp-unrestrained-IRC-max-disp-SPE.01.mae
  
  basis set:             6-31g**                         
  net molecular charge:    0
  multiplicity:            1
  
  keygrid settings 
    wispc.....   7.500E-01
    ldens.....   0
    denspc....   7.500E-01
  
   grid     daf set  nls  grid set  Q type
  ------    -------  ---  --------  ------
  coarse       1      1       1        1
  medium       2      2       2        1
  fine         3      2       3        0
  ultrafine    4      2       4        1
  charge       0      1      -1        1
  gradient     5      2       4        1
  density      0      1       0        0
  DFT-fine     0      1     -13        0
  DFT-med.     0      1     -13        0
  DFT-grad     0      1     -13        0
  DFT-der2     0      1       0        0
  DFT-cphf     0      1       0        0
  LMP2-enrg    4      2       4        1
  LMP2-grad    5      2       2        1
  DFT-cphf2    0      1       0        0
  PBF-dens     0      1       0        0
  plotting     0      1       0        0
  Rel-grad     0      1     -17        0
  
  idftgrdm  100
  ndftgrdm   50    0    0
  idftgrdf  111
  ndftgrdf   85    0    0
  idftgrdg  111
  ndftgrdg   80    3    0
  idftgrdu  433
  ndftgrdu  105    0    0
  idftgrdd  433
  ndftgrdd  105    0    0
  idftgrdc  433
  ndftgrdc   26    0    0
  idftgrdp  433
  ndftgrdp   18    0    0
  
  number of basis functions....         1680
  
 Input geometry:
                                   angstroms
  atom               x                 y                 z
  C1           -2.8791000000      2.3482000000     -0.1035000000 
  C2           -5.3557000000      1.3366000000      0.8262000000 
  C3           -4.2448000000      0.4022000000      0.5436000000 
  C4           -3.0394000000      0.8874000000      0.1781000000 
  H5           -6.3163000000      0.9537000000      1.1431000000 
  C6            0.7497000000      3.9284000000     -1.8229000000 
  C7            0.7932000000      3.2767000000     -0.6516000000 
  C8           -0.4442000000      2.6140000000     -0.1484000000 
  C9           -1.6284000000      2.8269000000     -0.7560000000 
  H10           1.6330000000      4.3994000000     -2.2258000000 
  C11          -3.8825000000      3.1988000000      0.2208000000 
  C12          -5.1788000000      2.6574000000      0.7025000000 
  C13          -6.2753000000      3.6006000000      1.0001000000 
  C14          -6.0909000000      4.9173000000      0.8577000000 
  C15          -4.7956000000      5.4697000000      0.4081000000 
  C16          -3.7599000000      4.6759000000      0.1117000000 
  H17          -7.2374000000      3.2321000000      1.3361000000 
  H18          -6.9031000000      5.5971000000      1.0809000000 
  H19          -4.6845000000      6.5433000000      0.3251000000 
  H20          -2.8282000000      5.1363000000     -0.1902000000 
  C21          -0.5104000000      4.0265000000     -2.5873000000 
  C22          -1.6540000000      3.5095000000     -2.0835000000 
  C23          -2.8954000000      3.5679000000     -2.9027000000 
  C24          -2.8872000000      4.1622000000     -4.1013000000 
  C25          -1.6433000000      4.7564000000     -4.6263000000 
  C26          -0.5151000000      4.6899000000     -3.9117000000 
  H27          -3.8133000000      3.1179000000     -2.5489000000 
  H28          -3.7920000000      4.2002000000     -4.6942000000 
  H29          -1.6451000000      5.2388000000     -5.5952000000 
  H30           0.3962000000      5.1205000000     -4.3077000000 
  Si31         -4.5351000000     -1.4385000000      0.7059000000 
  Si32          2.3862000000      3.2592000000      0.3454000000 
  C33          -3.7407000000     -3.5272000000     -3.4249000000 
  C34          -4.0358000000     -4.2628000000     -2.3475000000 
  C35          -4.3099000000     -3.6039000000     -1.0537000000 
  C36          -4.2352000000     -2.2660000000     -0.9427000000 
  C37          -3.9553000000     -1.4555000000     -2.1539000000 
  C38          -3.7120000000     -2.0547000000     -3.3261000000 
  H39          -3.5354000000     -4.0080000000     -4.3726000000 
  H40          -4.0685000000     -5.3422000000     -2.4189000000 
  H41          -4.5567000000     -4.2177000000     -0.1963000000 
  H42          -3.9618000000     -0.3759000000     -2.1080000000 
  H43          -3.5059000000     -1.4607000000     -4.2070000000 
  C44          -1.6304000000     -3.0592000000      4.0216000000 
  C45          -2.3946000000     -1.9882000000      4.2583000000 
  C46          -3.2854000000     -1.4663000000      3.2014000000 
  C47          -3.3478000000     -2.0705000000      2.0017000000 
  C48          -2.4453000000     -3.2187000000      1.7274000000 
  C49          -1.6468000000     -3.6951000000      2.6902000000 
  H50          -0.9796000000     -3.4454000000      4.7953000000 
  H51          -2.3673000000     -1.5048000000      5.2262000000 
  H52          -3.8723000000     -0.5836000000      3.4124000000 
  H53          -2.4027000000     -3.6731000000      0.7504000000 
  H54          -0.9915000000     -4.5324000000      2.4874000000 
  C55          -8.9540000000     -2.3008000000      2.0586000000 
  C56          -8.5516000000     -2.6480000000      0.8316000000 
  C57          -7.1645000000     -2.3755000000      0.4011000000 
  C58          -6.2931000000     -1.7865000000      1.2405000000 
  C59          -6.7548000000     -1.3919000000      2.5957000000 
  C60          -8.0129000000     -1.6378000000      2.9814000000 
  H61          -9.9700000000     -2.4988000000      2.3748000000 
  H62          -9.2414000000     -3.1288000000      0.1501000000 
  H63          -6.8797000000     -2.6515000000     -0.6040000000 
  H64          -6.0909000000     -0.8862000000      3.2787000000 
  H65          -8.3459000000     -1.3435000000      3.9684000000 
  C66           5.5823000000      0.4127000000     -1.5571000000 
  C67           4.3673000000      0.5070000000     -2.1094000000 
  C68           3.3444000000      1.3845000000     -1.5034000000 
  C69           3.6266000000      2.0880000000     -0.3961000000 
  C70           4.9772000000      1.9851000000      0.2076000000 
  C71           5.9020000000      1.1878000000     -0.3412000000 
  H72           6.3300000000     -0.2356000000     -1.9951000000 
  H73           4.1290000000     -0.0632000000     -2.9979000000 
  H74           2.3778000000      1.4590000000     -1.9754000000 
  H75           5.2201000000      2.5541000000      1.0963000000 
  H76           6.8846000000      1.1074000000      0.1052000000 
  C77           1.2786000000      2.0421000000      4.7367000000 
  C78           2.1789000000      1.3227000000      4.0578000000 
  C79           2.5467000000      1.7054000000      2.6785000000 
  C80           1.9968000000      2.7892000000      2.1071000000 
  C81           0.9971000000      3.5816000000      2.8664000000 
  C82           0.6560000000      3.2251000000      4.1104000000 
  H83           1.0051000000      1.7594000000      5.7450000000 
  H84           2.6379000000      0.4582000000      4.5178000000 
  H85           3.2491000000      1.0889000000      2.1401000000 
  H86           0.5244000000      4.4417000000      2.4084000000 
  H87          -0.0792000000      3.8001000000      4.6581000000 
  C88           4.4986000000      7.4517000000      0.2236000000 
  C89           4.4783000000      6.6743000000     -0.8642000000 
  C90           3.8119000000      5.3566000000     -0.8202000000 
  C91           3.2020000000      4.9375000000      0.3031000000 
  C92           3.2539000000      5.7958000000      1.5140000000 
  C93           3.8630000000      6.9875000000      1.4720000000 
  H94           4.9881000000      8.4165000000      0.1940000000 
  H95           4.9525000000      7.0070000000     -1.7785000000 
  H96           3.8449000000      4.7318000000     -1.7032000000 
  H97           2.8168000000      5.4695000000      2.4447000000 
  H98           3.9000000000      7.6100000000      2.3568000000 
  O99          -2.0208000000      0.0122000000     -0.1037000000 
  O100         -0.3912000000      1.8186000000      0.9644000000 
  P101         -0.5943000000      0.2247000000      0.6654000000 
  O102         -0.5044000000     -0.4519000000      1.9879000000 
  N103          3.5866000000     -2.3461000000     -0.7066000000 
  H104          2.7478000000     -2.0199000000     -1.2782000000 
  C105          3.7743000000     -1.7755000000      0.4631000000 
  C106          7.1847000000     -1.5664000000      2.9588000000 
  C107          5.9212000000     -1.2306000000      3.4500000000 
  C108          4.8092000000     -1.3339000000      2.6248000000 
  C109          4.9476000000     -1.8001000000      1.3005000000 
  C110          6.2293000000     -2.1394000000      0.8136000000 
  C111          7.3359000000     -2.0144000000      1.6416000000 
  H112          8.0572000000     -1.4677000000      3.5977000000 
  H113          5.8041000000     -0.8835000000      4.4713000000 
  H114          3.8227000000     -1.0925000000      2.9998000000 
  H115          6.3663000000     -2.4389000000     -0.2185000000 
  H116          8.3221000000     -2.2543000000      1.2582000000 
  H117          2.9750000000     -1.0834000000      0.7276000000 
  N118          0.5196000000     -0.1748000000     -0.4785000000 
  S119          0.2851000000     -1.1325000000     -1.7064000000 
  O120         -0.6826000000     -2.2258000000     -1.5429000000 
  O121          1.6254000000     -1.5106000000     -2.2583000000 
  C122         -0.3736000000     -0.1161000000     -3.1444000000 
  F123         -1.5417000000      0.4610000000     -2.8443000000 
  F124          0.4921000000      0.8446000000     -3.4835000000 
  F125         -0.5522000000     -0.9246000000     -4.1954000000 
  C126          1.7536000000     -3.2163000000      1.9967000000 
  C127          2.6160000000     -4.0946000000      2.6414000000 
  C128          2.7272000000     -3.6580000000      3.9827000000 
  C129          1.9203000000     -2.5336000000      4.1157000000 
  N130          1.3425000000     -2.2726000000      2.9068000000 
  H131          1.3280000000     -3.2555000000      1.0057000000 
  H132          3.1088000000     -4.9384000000      2.1807000000 
  H133          3.3213000000     -4.1058000000      4.7670000000 
  H134          1.7096000000     -1.9167000000      4.9774000000 
  H135          0.6456000000     -1.5460000000      2.6887000000 
  S136          4.3240000000     -3.8114000000     -1.3605000000 
  O137          5.3174000000     -3.4105000000     -2.3560000000 
  O138          4.6845000000     -4.6619000000     -0.2332000000 
  C139          0.5733000000     -5.2476000000     -3.3750000000 
  C140          0.6804000000     -5.0514000000     -1.9939000000 
  N141          1.8145000000     -4.6534000000     -1.4117000000 
  C142          2.8453000000     -4.4224000000     -2.2111000000 
  C143          2.8715000000     -4.5730000000     -3.5913000000 
  C144          1.6837000000     -5.0135000000     -4.1815000000 
  H145         -0.3721000000     -5.5635000000     -3.8023000000 
  H146         -0.1714000000     -5.2006000000     -1.3384000000 
  H147          3.7616000000     -4.3426000000     -4.1635000000 
  H148          1.6278000000     -5.1517000000     -5.2565000000 
   
  principal moments of inertia:
        amu*angstrom^2:    20129.84152    25874.70429    32057.52843
                g*cm^2: 3.34263841E-36 4.29659520E-36 5.32327717E-36
   
  rotational constants:
               cm^(-1):      0.00083744      0.00065151      0.00052586
                   GHz:      0.02510596      0.01953178      0.01576475
   
  Molecular weight:    1308.28 amu
   
  Stoichiometry: Si2C73PN4H56S2O7F3
[running at reduced cpu priority]
  Molecular Point Group: C1      
  Point Group used: C1
  
  nuclear repulsion energy.......   20845.045168219 hartrees
 
 Non-default options chosen:
   SCF calculation type: DFT(m06-2x)                 
   DFT=M06-2X
   Solvation energy will be computed using PBF
     -solute cavity energy will not be included
     -surface area terms will not be included
   Highest accuracy cutoffs used in SCF
   Solvent: other                                                           
   Internal dielectric constant:    1.000
   Continuum dielectric constant:   2.380
   Solvent probe molecule radius:   2.760
  
 Temporary integer options set:
     73=  2
  
  atom       vdw   vdw2    cov     mass  grid  daf  charge   basis
  C1        1.949  1.900  0.770   12.000    Y    Y      Y    6-31g**
  C2        1.949  1.900  0.770   12.000    Y    Y      Y    6-31g**
  C3        1.949  1.900  0.770   12.000    Y    Y      Y    6-31g**
  C4        1.949  1.900  0.770   12.000    Y    Y      Y    6-31g**
  H5        1.597  1.150  0.320    1.008    Y    Y      Y    6-31g**
  C6        1.949  1.900  0.770   12.000    Y    Y      Y    6-31g**
  C7        1.949  1.900  0.770   12.000    Y    Y      Y    6-31g**
  C8        1.949  1.900  0.770   12.000    Y    Y      Y    6-31g**
  C9        1.949  1.900  0.770   12.000    Y    Y      Y    6-31g**
  H10       1.597  1.150  0.320    1.008    Y    Y      Y    6-31g**
  C11       1.949  1.900  0.770   12.000    Y    Y      Y    6-31g**
  C12       1.949  1.900  0.770   12.000    Y    Y      Y    6-31g**
  C13       1.949  1.900  0.770   12.000    Y    Y      Y    6-31g**
  C14       1.949  1.900  0.770   12.000    Y    Y      Y    6-31g**
  C15       1.949  1.900  0.770   12.000    Y    Y      Y    6-31g**
  C16       1.949  1.900  0.770   12.000    Y    Y      Y    6-31g**
  H17       1.597  1.150  0.320    1.008    Y    Y      Y    6-31g**
  H18       1.597  1.150  0.320    1.008    Y    Y      Y    6-31g**
  H19       1.597  1.150  0.320    1.008    Y    Y      Y    6-31g**
  H20       1.597  1.150  0.320    1.008    Y    Y      Y    6-31g**
  C21       1.949  1.900  0.770   12.000    Y    Y      Y    6-31g**
  C22       1.949  1.900  0.770   12.000    Y    Y      Y    6-31g**
  C23       1.949  1.900  0.770   12.000    Y    Y      Y    6-31g**
  C24       1.949  1.900  0.770   12.000    Y    Y      Y    6-31g**
  C25       1.949  1.900  0.770   12.000    Y    Y      Y    6-31g**
  C26       1.949  1.900  0.770   12.000    Y    Y      Y    6-31g**
  H27       1.597  1.150  0.320    1.008    Y    Y      Y    6-31g**
  H28       1.597  1.150  0.320    1.008    Y    Y      Y    6-31g**
  H29       1.597  1.150  0.320    1.008    Y    Y      Y    6-31g**
  H30       1.597  1.150  0.320    1.008    Y    Y      Y    6-31g**
  Si31      2.217  2.147  1.110   27.977    Y    Y      Y    6-31g**
  Si32      2.217  2.147  1.110   27.977    Y    Y      Y    6-31g**
  C33       1.949  1.900  0.770   12.000    Y    Y      Y    6-31g**
  C34       1.949  1.900  0.770   12.000    Y    Y      Y    6-31g**
  C35       1.949  1.900  0.770   12.000    Y    Y      Y    6-31g**
  C36       1.949  1.900  0.770   12.000    Y    Y      Y    6-31g**
  C37       1.949  1.900  0.770   12.000    Y    Y      Y    6-31g**
  C38       1.949  1.900  0.770   12.000    Y    Y      Y    6-31g**
  H39       1.597  1.150  0.320    1.008    Y    Y      Y    6-31g**
  H40       1.597  1.150  0.320    1.008    Y    Y      Y    6-31g**
  H41       1.597  1.150  0.320    1.008    Y    Y      Y    6-31g**
  H42       1.597  1.150  0.320    1.008    Y    Y      Y    6-31g**
  H43       1.597  1.150  0.320    1.008    Y    Y      Y    6-31g**
  C44       1.949  1.900  0.770   12.000    Y    Y      Y    6-31g**
  C45       1.949  1.900  0.770   12.000    Y    Y      Y    6-31g**
  C46       1.949  1.900  0.770   12.000    Y    Y      Y    6-31g**
  C47       1.949  1.900  0.770   12.000    Y    Y      Y    6-31g**
  C48       1.949  1.900  0.770   12.000    Y    Y      Y    6-31g**
  C49       1.949  1.900  0.770   12.000    Y    Y      Y    6-31g**
  H50       1.597  1.150  0.320    1.008    Y    Y      Y    6-31g**
  H51       1.597  1.150  0.320    1.008    Y    Y      Y    6-31g**
  H52       1.597  1.150  0.320    1.008    Y    Y      Y    6-31g**
  H53       1.597  1.150  0.320    1.008    Y    Y      Y    6-31g**
  H54       1.597  1.150  0.320    1.008    Y    Y      Y    6-31g**
  C55       1.949  1.900  0.770   12.000    Y    Y      Y    6-31g**
  C56       1.949  1.900  0.770   12.000    Y    Y      Y    6-31g**
  C57       1.949  1.900  0.770   12.000    Y    Y      Y    6-31g**
  C58       1.949  1.900  0.770   12.000    Y    Y      Y    6-31g**
  C59       1.949  1.900  0.770   12.000    Y    Y      Y    6-31g**
  C60       1.949  1.900  0.770   12.000    Y    Y      Y    6-31g**
  H61       1.597  1.150  0.320    1.008    Y    Y      Y    6-31g**
  H62       1.597  1.150  0.320    1.008    Y    Y      Y    6-31g**
  H63       1.597  1.150  0.320    1.008    Y    Y      Y    6-31g**
  H64       1.597  1.150  0.320    1.008    Y    Y      Y    6-31g**
  H65       1.597  1.150  0.320    1.008    Y    Y      Y    6-31g**
  C66       1.949  1.900  0.770   12.000    Y    Y      Y    6-31g**
  C67       1.949  1.900  0.770   12.000    Y    Y      Y    6-31g**
  C68       1.949  1.900  0.770   12.000    Y    Y      Y    6-31g**
  C69       1.949  1.900  0.770   12.000    Y    Y      Y    6-31g**
  C70       1.949  1.900  0.770   12.000    Y    Y      Y    6-31g**
  C71       1.949  1.900  0.770   12.000    Y    Y      Y    6-31g**
  H72       1.597  1.150  0.320    1.008    Y    Y      Y    6-31g**
  H73       1.597  1.150  0.320    1.008    Y    Y      Y    6-31g**
  H74       1.597  1.150  0.320    1.008    Y    Y      Y    6-31g**
  H75       1.597  1.150  0.320    1.008    Y    Y      Y    6-31g**
  H76       1.597  1.150  0.320    1.008    Y    Y      Y    6-31g**
  C77       1.949  1.900  0.770   12.000    Y    Y      Y    6-31g**
  C78       1.949  1.900  0.770   12.000    Y    Y      Y    6-31g**
  C79       1.949  1.900  0.770   12.000    Y    Y      Y    6-31g**
  C80       1.949  1.900  0.770   12.000    Y    Y      Y    6-31g**
  C81       1.949  1.900  0.770   12.000    Y    Y      Y    6-31g**
  C82       1.949  1.900  0.770   12.000    Y    Y      Y    6-31g**
  H83       1.597  1.150  0.320    1.008    Y    Y      Y    6-31g**
  H84       1.597  1.150  0.320    1.008    Y    Y      Y    6-31g**
  H85       1.597  1.150  0.320    1.008    Y    Y      Y    6-31g**
  H86       1.597  1.150  0.320    1.008    Y    Y      Y    6-31g**
  H87       1.597  1.150  0.320    1.008    Y    Y      Y    6-31g**
  C88       1.949  1.900  0.770   12.000    Y    Y      Y    6-31g**
  C89       1.949  1.900  0.770   12.000    Y    Y      Y    6-31g**
  C90       1.949  1.900  0.770   12.000    Y    Y      Y    6-31g**
  C91       1.949  1.900  0.770   12.000    Y    Y      Y    6-31g**
  C92       1.949  1.900  0.770   12.000    Y    Y      Y    6-31g**
  C93       1.949  1.900  0.770   12.000    Y    Y      Y    6-31g**
  H94       1.597  1.150  0.320    1.008    Y    Y      Y    6-31g**
  H95       1.597  1.150  0.320    1.008    Y    Y      Y    6-31g**
  H96       1.597  1.150  0.320    1.008    Y    Y      Y    6-31g**
  H97       1.597  1.150  0.320    1.008    Y    Y      Y    6-31g**
  H98       1.597  1.150  0.320    1.008    Y    Y      Y    6-31g**
  O99       1.702  1.600  0.730   15.995    Y    Y      Y    6-31g**
  O100      1.702  1.600  0.730   15.995    Y    Y      Y    6-31g**
  P101      2.147  2.074  1.060   30.974    Y    Y      Y    6-31g**
  O102      1.702  1.600  0.730   15.995    Y    Y      Y    6-31g**
  N103      1.831  1.600  0.750   14.003    Y    Y      Y    6-31g**
  H104      1.597  1.150  0.320    1.008    Y    Y      Y    6-31g**
  C105      1.949  1.900  0.770   12.000    Y    Y      Y    6-31g**
  C106      1.949  1.900  0.770   12.000    Y    Y      Y    6-31g**
  C107      1.949  1.900  0.770   12.000    Y    Y      Y    6-31g**
  C108      1.949  1.900  0.770   12.000    Y    Y      Y    6-31g**
  C109      1.949  1.900  0.770   12.000    Y    Y      Y    6-31g**
  C110      1.949  1.900  0.770   12.000    Y    Y      Y    6-31g**
  C111      1.949  1.900  0.770   12.000    Y    Y      Y    6-31g**
  H112      1.597  1.150  0.320    1.008    Y    Y      Y    6-31g**
  H113      1.597  1.150  0.320    1.008    Y    Y      Y    6-31g**
  H114      1.597  1.150  0.320    1.008    Y    Y      Y    6-31g**
  H115      1.597  1.150  0.320    1.008    Y    Y      Y    6-31g**
  H116      1.597  1.150  0.320    1.008    Y    Y      Y    6-31g**
  H117      1.597  1.150  0.320    1.008    Y    Y      Y    6-31g**
  N118      1.831  1.600  0.750   14.003    Y    Y      Y    6-31g**
  S119      2.070  1.900  1.020   31.972    Y    Y      Y    6-31g**
  O120      1.702  1.600  0.730   15.995    Y    Y      Y    6-31g**
  O121      1.702  1.600  0.730   15.995    Y    Y      Y    6-31g**
  C122      1.949  1.900  0.770   12.000    Y    Y      Y    6-31g**
  F123      1.736  1.682  0.720   18.998    Y    Y      Y    6-31g**
  F124      1.736  1.682  0.720   18.998    Y    Y      Y    6-31g**
  F125      1.736  1.682  0.720   18.998    Y    Y      Y    6-31g**
  C126      1.949  1.900  0.770   12.000    Y    Y      Y    6-31g**
  C127      1.949  1.900  0.770   12.000    Y    Y      Y    6-31g**
  C128      1.949  1.900  0.770   12.000    Y    Y      Y    6-31g**
  C129      1.949  1.900  0.770   12.000    Y    Y      Y    6-31g**
  N130      1.831  1.600  0.750   14.003    Y    Y      Y    6-31g**
  H131      1.597  1.150  0.320    1.008    Y    Y      Y    6-31g**
  H132      1.597  1.150  0.320    1.008    Y    Y      Y    6-31g**
  H133      1.597  1.150  0.320    1.008    Y    Y      Y    6-31g**
  H134      1.597  1.150  0.320    1.008    Y    Y      Y    6-31g**
  H135      1.597  1.150  0.320    1.008    Y    Y      Y    6-31g**
  S136      2.070  1.900  1.020   31.972    Y    Y      Y    6-31g**
  O137      1.702  1.600  0.730   15.995    Y    Y      Y    6-31g**
  O138      1.702  1.600  0.730   15.995    Y    Y      Y    6-31g**
  C139      1.949  1.900  0.770   12.000    Y    Y      Y    6-31g**
  C140      1.949  1.900  0.770   12.000    Y    Y      Y    6-31g**
  N141      1.831  1.600  0.750   14.003    Y    Y      Y    6-31g**
  C142      1.949  1.900  0.770   12.000    Y    Y      Y    6-31g**
  C143      1.949  1.900  0.770   12.000    Y    Y      Y    6-31g**
  C144      1.949  1.900  0.770   12.000    Y    Y      Y    6-31g**
  H145      1.597  1.150  0.320    1.008    Y    Y      Y    6-31g**
  H146      1.597  1.150  0.320    1.008    Y    Y      Y    6-31g**
  H147      1.597  1.150  0.320    1.008    Y    Y      Y    6-31g**
  H148      1.597  1.150  0.320    1.008    Y    Y      Y    6-31g**
  
  Peak memory usage:    768 Mb
  
  end of program pre
   
 Time(pre)  user:        1.1  user+sys:        1.1  wallclock:        3.3
  
  start of program onee
  
  smallest eigenvalue of S:    2.184E-04
  number of canonical orbitals.....         1673
  Peak memory usage:    900 Mb
  
  end of program onee
   
 Time(onee)  user:       20.8  user+sys:       20.8  wallclock:       36.3
  
  start of program hfig
  
  initial wavefunction generated automatically from atomic wavefunctions
 
  Irreducible     Total no   No of occupied orbitals 
  representation  orbitals   Shell_1  Shell_2    ...
  No Symm         1673        340
  ------------------------
  Orbital occupation/shell    1.000
 
  Peak memory usage:    833 Mb
  
  end of program hfig
   
 Time(hfig)  user:       37.2  user+sys:       37.2  wallclock:       70.3
  
  start of program probe
  
  Peak memory usage:    826 Mb
  
  end of program probe
   
 Time(probe)  user:       20.3  user+sys:       20.3  wallclock:       32.3
  
  start of program grid
  
   grid     grid set  grid #  grid sym
  ------    --------  ------  --------
  coarse        0        0        1
  medium        2        1        1
  fine          0        0        1
  ultrafine     4        2        1
  charge       -1        3        1
  gradient      4        2        1
  density       0        0        1
  DFT-fine    -13        4        1
  DFT-med.    -13        4        1
  DFT-grad    -13        4        1
  DFT-der2      0        0        1
  DFT-cphf      0        0        1
  LMP2-enrg     4        2        1
  LMP2-grad     2        1        1
  DFT-cphf2     0        0        1
  PBF-dens      0        0        1
  plotting      0        0        1
  Rel-grad    -17        0        1
  
  number of gridpoints: 
     atom        C1       C2       C3       C4       H5       C6       C7
  grid # 1      100       93      100       97      111       93      101
  grid # 2      358      338      359      359      427      335      359
  grid # 3       13       29       12       19      185       22       14
  grid # 4    48124    48124    48124    48124    48426    48124    48124
   
  number of gridpoints: 
     atom        C8       C9      H10      C11      C12      C13      C14
  grid # 1       97      100      110      102      102       98       94
  grid # 2      357      354      422      359      366      340      339
  grid # 3       15        6      157       30       43       47       47
  grid # 4    48124    48124    48426    48124    48124    48124    48124
   
  number of gridpoints: 
     atom       C15      C16      H17      H18      H19      H20      C21
  grid # 1       95       97      118      118      118      114      101
  grid # 2      338      338      443      450      449      434      365
  grid # 3       42       31      361      417      411      249       28
  grid # 4    48124    48124    48426    48426    48426    48426    48124
   
  number of gridpoints: 
     atom       C22      C23      C24      C25      C26      H27      H28
  grid # 1      100       96       93       94       95      111      118
  grid # 2      357      337      336      335      336      433      451
  grid # 3        6       22       36       42       35      223      416
  grid # 4    48124    48124    48124    48124    48124    48426    48426
   
  number of gridpoints: 
     atom       H29      H30     Si31     Si32      C33      C34      C35
  grid # 1      118      118      476      471       93       93       92
  grid # 2      453      445      476      471      335      333      331
  grid # 3      424      354       11       11       32       27        9
  grid # 4    48426    48426    38542    38542    48124    48124    48124
   
  number of gridpoints: 
     atom       C36      C37      C38      H39      H40      H41      H42
  grid # 1      101       96       93      117      117      112      109
  grid # 2      355      337      334      449      451      429      422
  grid # 3        9       16       27      360      376      242      165
  grid # 4    48124    48124    48124    48426    48426    48426    48426
   
  number of gridpoints: 
     atom       H43      C44      C45      C46      C47      C48      C49
  grid # 1      115       94       93       92      101       96       94
  grid # 2      443      332      332      334      358      337      333
  grid # 3      308       29       28       18       20       24       31
  grid # 4    48426    48124    48124    48124    48124    48124    48124
   
  number of gridpoints: 
     atom       H50      H51      H52      H53      H54      C55      C56
  grid # 1      115      117      110      108      115       94       94
  grid # 2      444      451      427      419      439      336      335
  grid # 3      308      372      196      142      294       45       45
  grid # 4    48426    48426    48426    48426    48426    48124    48124
   
  number of gridpoints: 
     atom       C57      C58      C59      C60      H61      H62      H63
  grid # 1       92      101       97       93      118      118      112
  grid # 2      337      360      335      337      453      452      433
  grid # 3       28       21       31       39      424      417      247
  grid # 4    48124    48124    48124    48124    48426    48426    48426
   
  number of gridpoints: 
     atom       H64      H65      C66      C67      C68      C69      C70
  grid # 1      111      118       93       93       92       99       94
  grid # 2      423      452      332      331      334      357      335
  grid # 3      197      417       25       22       13        6       18
  grid # 4    48426    48426    48124    48124    48124    48124    48124
   
  number of gridpoints: 
     atom       C71      H72      H73      H74      H75      H76      C77
  grid # 1       93      115      114      106      112      116       93
  grid # 2      332      441      439      413      437      446      334
  grid # 3       25      301      274       92      261      330       37
  grid # 4    48124    48426    48426    48426    48426    48426    48124
   
  number of gridpoints: 
     atom       C78      C79      C80      C81      C82      H83      H84
  grid # 1       93       92       99       94       92      117      110
  grid # 2      333      334      359      328      334      450      427
  grid # 3       33       20        9       12       27      385      175
  grid # 4    48124    48124    48124    48124    48124    48426    48426
   
  number of gridpoints: 
     atom       H85      H86      H87      C88      C89      C90      C91
  grid # 1      105      112      118       94       94       92      101
  grid # 2      415      430      451      336      335      336      363
  grid # 3       83      223      408       49       46       26       24
  grid # 4    48426    48426    48426    48124    48124    48124    48124
   
  number of gridpoints: 
     atom       C92      C93      H94      H95      H96      H97      H98
  grid # 1       97       94      118      118      110      111      118
  grid # 2      340      337      453      452      427      429      453
  grid # 3       37       46      424      416      203      220      423
  grid # 4    48124    48124    48426    48426    48426    48426    48426
   
  number of gridpoints: 
     atom       O99     O100     P101     O102     N103     H104     C105
  grid # 1      112      112      449      116       99       97       92
  grid # 2      429      436      449      460      354      386      336
  grid # 3       19       56        7       68       10       43        7
  grid # 4    47716    47716    38640    47716    47928    48426    48124
   
  number of gridpoints: 
     atom      C106     C107     C108     C109     C110     C111     H112
  grid # 1       96       95       95       96       95       96      118
  grid # 2      333      332      332      355      335      334      450
  grid # 3       38       31       22       15       21       33      416
  grid # 4    48124    48124    48124    48124    48124    48124    48426
   
  number of gridpoints: 
     atom      H113     H114     H115     H116     H117     N118     S119
  grid # 1      117      105      109      117      103      107      435
  grid # 2      445      403      421      450      410      413      435
  grid # 3      352       43      136      396       74       22        9
  grid # 4    48426    48426    48426    48426    48426    47928    48492
   
  number of gridpoints: 
     atom      O120     O121     C122     F123     F124     F125     C126
  grid # 1      117      116       91      509      520      529       94
  grid # 2      479      451      319      509      520      529      318
  grid # 3       85       59        7       61      142      217        6
  grid # 4    47716    47716    48124    47062    47062    47062    48124
   
  number of gridpoints: 
     atom      C127     C128     C129     N130     H131     H132     H133
  grid # 1       95       95       93       96      106      115      117
  grid # 2      329      329      319      333      422      448      458
  grid # 3       16       17        8        9      118      327      430
  grid # 4    48124    48124    48124    47928    48426    48426    48426
   
  number of gridpoints: 
     atom      H134     H135     S136     O137     O138     C139     C140
  grid # 1      112      101      450      121      121       96       96
  grid # 2      440      405      450      487      494      333      335
  grid # 3      263       90       13      197      218       36       30
  grid # 4    48426    48426    48492    47716    47716    48124    48124
   
  number of gridpoints: 
     atom      N141     C142     C143     C144     H145     H146     H147
  grid # 1      111       98       96       96      115      114      114
  grid # 2      409      355      329      331      444      440      445
  grid # 3       67       29       37       41      322      284      334
  grid # 4    47928    48124    48124    48124    48426    48426    48426
   
  number of gridpoints: 
     atom      H148    total
  grid # 1      117    18381
  grid # 2      453    57861
  grid # 3      422    19098
  grid # 4    48426  7104526
   
  Peak memory usage:    795 Mb
  
  end of program grid
   
 Time(grid)  user:     1120.7  user+sys:     1120.7  wallclock:     2426.9
  
  start of program rwr
  
  Peak memory usage:    814 Mb
  
  end of program rwr
   
 Time(rwr)  user:       70.2  user+sys:       70.2  wallclock:      259.7
  
  start of program scf
  
 number of electrons..........        680
 number of alpha electrons....        340
 number of beta electrons.....        340
 number of orbitals, total....       1673
 number of doubly-occ'd orbs..        340
 number of open shell orbs....          0
 number of occupied orbitals..        340
 number of virtual orbitals...       1333
 number of hamiltonians.......          1
 number of shells.............          1
 SCF type: DFT=M06-2X
 Energy computed with NOPS off.
  
       i  u  d  i  g                   
       t  p  i  c  r                                 RMS    maximum
       e  d  i  u  i                       energy  density   DIIS  
       r  t  s  t  d       total energy    change  change    error 
  
etot    1  N  N  1  U   -5562.80506415303           3.4E-03  1.3E-01
etot    2  N  Y  1  U   -5539.83506336555 -2.3E+01  1.6E-02  1.1E-01
etot    3  N  Y  1  U   -5315.10141355760 -2.2E+02  1.6E-02  3.9E-01
etot    4  N  Y  1  U   -5566.97548235263  2.5E+02  2.6E-03  8.5E-02
etot    5  N  Y  1  U   -5573.72462913553  6.7E+00  1.5E-03  3.6E-02
etot    6  N  Y  1  U   -5572.48784549766 -1.2E+00  9.7E-04  6.0E-02
etot    7  N  Y  1  U   -5575.48101582818  3.0E+00  2.3E-04  1.5E-02
etot    8  N  Y  1  U   -5575.54333752469  6.2E-02  9.0E-05  7.0E-03
etot    9  N  Y  1  U   -5575.55686122593  1.4E-02  3.5E-05  1.3E-03
etot   10  N  Y  1  U   -5575.55880310193  1.9E-03  1.4E-05  7.8E-04
etot   11  N  Y  1  U   -5575.55908999784  2.9E-04  7.7E-06  3.7E-04
etot   12  N  Y  1  U   -5575.55918070099  9.1E-05  2.8E-06  9.7E-05
etot   13  N  N  1  U   -5575.55919121550  1.1E-05  0.0E+00  0.0E+00
  
  
 Energy components, in hartrees:
   (A)  Nuclear repulsion............   20845.04516821925
   (E)  Total one-electron terms.....  -49217.48375679598
   (F)    Electron-nuclear...........  -54753.40685732009
   (H)    Kinetic....................    5535.92310052410
   (I)  Total two-electron terms.....   22796.87939736124
   (J)    Coulomb....................   23448.09237776983
   (K)    Exchange+Correlation.......    -651.21298040859
   (L)  Electronic energy............  -26420.60435943474  (E+I)
   (M)  -V/T.........................       2.00715979792  (-(A+F+I)/H)
   (N)  Total energy.................   -5575.55919121550  (A+L)
   (O)  Gas phase energy.............   -5575.55919121550
  
 SCFE: SCF energy: DFT(m06-2x)     -5575.55919121550 hartrees   iterations:  13
  
 
 HOMO energy:    -0.24613
 LUMO energy:    -0.08222
 
  Orbital energies (hartrees): 
   -90.19558   -90.15887   -78.20341   -67.01070   -67.00218   -25.29342
   -25.29218   -25.29180   -19.68621   -19.68277   -19.67738   -19.67549
   -19.64148   -19.62919   -19.59218   -14.85539   -14.80199   -14.77687
   -14.74658   -10.80934   -10.68238   -10.64801   -10.62142   -10.61902
   -10.61654   -10.60225   -10.60152   -10.59800   -10.59152   -10.59033
   -10.58812   -10.58716   -10.57931   -10.57798   -10.56919   -10.56805
   -10.56678   -10.56497   -10.56155   -10.56027   -10.55793   -10.55491
   -10.55272   -10.55267   -10.55170   -10.55162   -10.55084   -10.55070
   -10.55059   -10.55052   -10.55027   -10.55018   -10.55000   -10.54957
   -10.54939   -10.54934   -10.54827   -10.54757   -10.54723   -10.54685
   -10.54669   -10.54652   -10.54576   -10.54576   -10.54571   -10.54485
   -10.54467   -10.54464   -10.54438   -10.54361   -10.54355   -10.54334
   -10.54331   -10.54323   -10.54265   -10.54129   -10.53788   -10.53684
   -10.53440   -10.53376   -10.53285   -10.53197   -10.53059   -10.52952
   -10.52814   -10.52699   -10.52550   -10.52514   -10.52442   -10.51756
   -10.51575   -10.51474    -8.50653    -8.46739    -6.98300    -6.42903
    -6.42742    -6.42657    -6.38925    -6.38894    -6.38866    -5.54159
    -5.53290    -5.10155    -5.10046    -5.09871    -3.85133    -3.85111
    -3.85091    -3.84278    -3.84249    -3.84206    -1.45953    -1.36825
    -1.36724    -1.26828    -1.22877    -1.21939    -1.18263    -1.15669
    -1.11321    -1.09960    -1.09260    -1.07889    -1.05915    -0.99124
    -0.98992    -0.97898    -0.96465    -0.94533    -0.94138    -0.93897
    -0.93785    -0.93695    -0.93364    -0.92087    -0.91960    -0.91563
    -0.90832    -0.89410    -0.88773    -0.87179    -0.85194    -0.84484
    -0.84315    -0.83983    -0.83525    -0.83496    -0.83392    -0.83132
    -0.83117    -0.83100    -0.82836    -0.82696    -0.82632    -0.82435
    -0.82421    -0.82334    -0.81975    -0.81253    -0.80930    -0.79820
    -0.79272    -0.77124    -0.75904    -0.75066    -0.73462    -0.72849
    -0.71991    -0.70787    -0.70150    -0.69645    -0.68811    -0.68740
    -0.68499    -0.68314    -0.67950    -0.67791    -0.67708    -0.67317
    -0.67249    -0.67033    -0.66928    -0.66695    -0.66490    -0.66133
    -0.66009    -0.65806    -0.65223    -0.64988    -0.64585    -0.64291
    -0.63900    -0.63208    -0.62654    -0.62379    -0.62183    -0.60758
    -0.60424    -0.59909    -0.59720    -0.59521    -0.59150    -0.58582
    -0.58196    -0.58080    -0.57920    -0.57785    -0.57446    -0.57262
    -0.56639    -0.56456    -0.56278    -0.56032    -0.55780    -0.55716
    -0.54823    -0.54595    -0.54451    -0.54021    -0.53613    -0.53500
    -0.53402    -0.52879    -0.52628    -0.52413    -0.52189    -0.51856
    -0.51734    -0.51580    -0.51468    -0.51408    -0.51286    -0.50860
    -0.50763    -0.50496    -0.50322    -0.50255    -0.50143    -0.50126
    -0.50066    -0.49744    -0.49670    -0.49555    -0.49407    -0.49342
    -0.49281    -0.49096    -0.48991    -0.48563    -0.48319    -0.48176
    -0.48121    -0.47955    -0.47759    -0.47682    -0.47396    -0.47264
    -0.46882    -0.46675    -0.46542    -0.46100    -0.45845    -0.45667
    -0.45402    -0.45231    -0.45160    -0.44744    -0.44469    -0.44389
    -0.44377    -0.43926    -0.43707    -0.43204    -0.43136    -0.42892
    -0.42769    -0.42653    -0.42378    -0.42250    -0.42006    -0.41926
    -0.41873    -0.41783    -0.41618    -0.41336    -0.41244    -0.40880
    -0.40622    -0.40433    -0.40094    -0.39869    -0.39601    -0.39323
    -0.39127    -0.39058    -0.38789    -0.38784    -0.38471    -0.38333
    -0.38201    -0.37813    -0.37586    -0.37403    -0.37266    -0.37043
    -0.36333    -0.35943    -0.35795    -0.35244    -0.34984    -0.34856
    -0.34482    -0.34227    -0.33816    -0.33514    -0.33373    -0.33224
    -0.33154    -0.32998    -0.32506    -0.32352    -0.30584    -0.30003
    -0.29804    -0.29662    -0.29564    -0.29430    -0.29181    -0.28942
    -0.28903    -0.28876    -0.28703    -0.28515    -0.28115    -0.27671
    -0.27263    -0.26736    -0.25126    -0.24613    -0.08222    -0.03500
    -0.01578    -0.01091    -0.00147     0.00508     0.01208     0.01777
     0.02285     0.02524
 
  Peak memory usage:   1028 Mb
  
  end of program scf
   
 Time(scf)  user:    35116.4  user+sys:    35116.4  wallclock:   111150.8
  
  start of program ch
  
  gridpoints used for charge fit        16505
    out of a possible maximum of        19098
  
   Electrostatic potential fitting constrained to reproduce
     total charge:                yes
     dipole moment:               no 
     traceless quadrupole moment: no 
     traceless octapole moment:   no 
  
  Atomic charges from electrostatic potential: 
   
 Atom       C1           C2           C3           C4           H5      
 Charge   -0.14573     -0.45397      0.17104      0.04467      0.19801
   
 Atom       C6           C7           C8           C9           H10     
 Charge   -0.39530     -0.01772      0.11502      0.06970      0.18794
   
 Atom       C11          C12          C13          C14          C15     
 Charge    0.08904      0.23931     -0.23226     -0.12164     -0.14962
   
 Atom       C16          H17          H18          H19          H20     
 Charge   -0.15537      0.14705      0.13252      0.14063      0.11682
   
 Atom       C21          C22          C23          C24          C25     
 Charge    0.25428      0.00262     -0.17239     -0.15627     -0.09790
   
 Atom       C26          H27          H28          H29          H30     
 Charge   -0.26265      0.14242      0.14248      0.13077      0.15465
   
 Atom       Si31         Si32         C33          C34          C35     
 Charge   -0.07968      0.13781     -0.17030     -0.16470     -0.09421
   
 Atom       C36          C37          C38          H39          H40     
 Charge    0.23381     -0.29617     -0.05447      0.13698      0.12616
   
 Atom       H41          H42          H43          C44          C45     
 Charge    0.08516      0.14698      0.10964     -0.07972     -0.16816
   
 Atom       C46          C47          C48          C49          H50     
 Charge   -0.15718      0.08442     -0.21920     -0.10698      0.09337
   
 Atom       H51          H52          H53          H54          C55     
 Charge    0.13436      0.13177      0.15396      0.11583     -0.15266
   
 Atom       C56          C57          C58          C59          C60     
 Charge   -0.14612     -0.12472      0.12731     -0.24319     -0.07535
   
 Atom       H61          H62          H63          H64          H65     
 Charge    0.13220      0.13557      0.08743      0.14896      0.11690
   
 Atom       C66          C67          C68          C69          C70     
 Charge   -0.18312     -0.09073     -0.12684      0.10206     -0.24662
   
 Atom       C71          H72          H73          H74          H75     
 Charge   -0.06147      0.13389      0.10633      0.11084      0.13616
   
 Atom       H76          C77          C78          C79          C80     
 Charge    0.10383     -0.05411     -0.22146     -0.01300     -0.02791
   
 Atom       C81          C82          H83          H84          H85     
 Charge   -0.04223     -0.21226      0.11935      0.13281      0.01655
   
 Atom       H86          H87          C88          C89          C90     
 Charge    0.11306      0.14327     -0.13510     -0.15800     -0.11435
   
 Atom       C91          C92          C93          H94          H95     
 Charge    0.04936     -0.15291     -0.11671      0.13112      0.13552
   
 Atom       H96          H97          H98          O99          O100    
 Charge    0.10227      0.09111      0.13010     -0.27916     -0.28681
   
 Atom       P101         O102         N103         H104         C105    
 Charge    0.95762     -0.51083     -0.42414      0.46007      0.26537
   
 Atom       C106         C107         C108         C109         C110    
 Charge    0.03299     -0.29800      0.15403     -0.01927      0.03224
   
 Atom       C111         H112         H113         H114         H115    
 Charge   -0.26734      0.12343      0.17168      0.00944      0.12103
   
 Atom       H116         H117         N118         S119         O120    
 Charge    0.16679      0.05938     -0.59922      0.74971     -0.43565
   
 Atom       O121         C122         F123         F124         F125    
 Charge   -0.55195      0.36385     -0.08131     -0.11858     -0.12684
   
 Atom       C126         C127         C128         C129         N130    
 Charge   -0.29799     -0.20936     -0.24000     -0.22634      0.30953
   
 Atom       H131         H132         H133         H134         H135    
 Charge    0.16897      0.16692      0.15907      0.15014      0.09194
   
 Atom       S136         O137         O138         C139         C140    
 Charge    0.64521     -0.40019     -0.38019     -0.37650      0.37320
   
 Atom       N141         C142         C143         C144         H145    
 Charge   -0.52861      0.49155     -0.40911      0.13468      0.18567
   
 Atom       H146         H147         H148    
 Charge    0.06744      0.20799      0.12267
  
  sum of atomic charges:    -0.000000
   
 RMS Error   9.74E-04 hartrees
 
  Peak memory usage:    816 Mb
  
  end of program ch
   
 Time(ch)  user:       19.0  user+sys:       19.0  wallclock:       59.0
  
  start of program post
  
  Writing input files for PBF
  Peak memory usage:    759 Mb
  
  end of program post
   
 Time(post)  user:        0.8  user+sys:        0.8  wallclock:        5.8

  start of program pbf

Pbf Version 4.10

Molecular surface area:      826.17217   [A2]
Reaction field energy:       -15.86333   [kT]
  Peak memory usage: 723 Mb

  end of program pbf

 Time(pbf)  user:        8.9  user+sys:        9.0  wallclock:       29.2
  
  start of program solv
  
   number of surface charges from PBF   13488
   sum of surface charges     -0.00032
   
  nuclear repulsion energy.......   20845.045168219 hartrees
  Peak memory usage:    894 Mb
  
  end of program solv
   
 Time(solv)  user:       38.1  user+sys:       38.1  wallclock:      105.9
  
  start of program scf
  
 Energy computed with NOPS off.
  
       i  u  d  i  g                   
       t  p  i  c  r                                 RMS    maximum
       e  d  i  u  i                       energy  density   DIIS  
       r  t  s  t  d       total energy    change  change    error 
  
etot    1  N  N  1  U   -5575.59263448786           4.9E-05  8.2E-04
etot    2  N  Y  1  U   -5575.59332389370  6.9E-04  1.6E-05  7.6E-04
etot    3  N  Y  1  U   -5575.59355128361  2.3E-04  5.2E-06  3.7E-04
etot    4  N  N  1  U   -5575.59360020039  4.9E-05  0.0E+00  0.0E+00
  
  
 Energy components, in hartrees:
   (A)  Total zero-electron terms....   20847.64107246172
   (B)    Nuclear-nuclear............   20845.04516821925
   (C)    Nuclear-solvent............       2.59590424247
   (E)  Total one-electron terms.....  -49221.60723551361
   (F)    Electron-nuclear...........  -54754.93572250932
   (G)    Electron-solvent...........      -2.63125539450
   (H)    Kinetic....................    5535.95974239020
   (I)  Total two-electron terms.....   22798.37256285151
   (J)    Coulomb....................   23449.60232149507
   (K)    Exchange+Correlation.......    -651.22975864357
   (L)  Electronic energy............  -26423.23467266211  (E+I)
   (N)  Total quantum mech. energy...   -5575.59360020039  (A+L)
   (O)  Gas phase energy.............   -5575.55919121550
   (P)  Solution phase energy........   -5575.57592462438  (Q+R+S)
   (Q)    Total solute energy........   -5575.55824904836  (N-C-G)
   (R)    Total solvent energy.......      -0.01767557601  (C/2+G/2)
   (S)    Solute cavity energy.......       0.00000000000
   (U)  Reorganization energy........       0.00094216713  (Q-O)
   (V)  Solvation energy.............      -0.01673340888  (P-O)
  
 SCFE:  Solution phase energy: DFT(m06-2x)      -5575.57592462438 hartrees
        SCF iterations:   4
  
 
 HOMO energy:    -0.24836
 LUMO energy:    -0.08138
 
  Orbital energies (hartrees): 
   -90.19760   -90.16091   -78.20570   -67.01236   -67.00573   -25.29670
   -25.29514   -25.29505   -19.68909   -19.68498   -19.68061   -19.67860
   -19.64304   -19.63103   -19.59506   -14.85575   -14.79742   -14.77914
   -14.74774   -10.81239   -10.68159   -10.64514   -10.62510   -10.62113
   -10.61203   -10.59739   -10.59589   -10.59575   -10.58794   -10.58604
   -10.58502   -10.58405   -10.57534   -10.57428   -10.57172   -10.57165
   -10.57005   -10.56779   -10.56368   -10.56223   -10.56103   -10.55685
   -10.55582   -10.55407   -10.55386   -10.55343   -10.55297   -10.55261
   -10.55213   -10.55198   -10.55193   -10.55170   -10.55160   -10.55156
   -10.55140   -10.55051   -10.55032   -10.54982   -10.54934   -10.54907
   -10.54872   -10.54870   -10.54842   -10.54808   -10.54807   -10.54796
   -10.54707   -10.54706   -10.54605   -10.54595   -10.54587   -10.54571
   -10.54550   -10.54520   -10.54448   -10.54317   -10.54060   -10.53971
   -10.53787   -10.53647   -10.53602   -10.53396   -10.53343   -10.53302
   -10.53177   -10.53173   -10.53001   -10.52903   -10.52770   -10.51981
   -10.51909   -10.51817    -8.50850    -8.46938    -6.98530    -6.43098
    -6.42946    -6.42847    -6.39124    -6.39094    -6.39067    -5.54326
    -5.53646    -5.10385    -5.10275    -5.10101    -3.85300    -3.85277
    -3.85258    -3.84632    -3.84604    -3.84562    -1.46273    -1.37161
    -1.37031    -1.27088    -1.23094    -1.22151    -1.18523    -1.15984
    -1.11462    -1.09929    -1.08988    -1.08150    -1.06130    -0.99250
    -0.98811    -0.98155    -0.96738    -0.94735    -0.94370    -0.94295
    -0.93944    -0.93643    -0.93178    -0.92565    -0.92193    -0.91325
    -0.91096    -0.89110    -0.89050    -0.86890    -0.85428    -0.84730
    -0.84498    -0.84285    -0.83747    -0.83682    -0.83659    -0.83478
    -0.83247    -0.83125    -0.83003    -0.82915    -0.82840    -0.82683
    -0.82587    -0.82534    -0.82291    -0.81703    -0.81378    -0.80082
    -0.79465    -0.76924    -0.76110    -0.74578    -0.73525    -0.72806
    -0.71699    -0.71025    -0.70366    -0.69861    -0.69078    -0.68842
    -0.68749    -0.68444    -0.68100    -0.68002    -0.67896    -0.67572
    -0.67428    -0.67080    -0.66993    -0.66874    -0.66726    -0.66280
    -0.66146    -0.66080    -0.65642    -0.65228    -0.64956    -0.64530
    -0.63907    -0.63281    -0.62680    -0.62585    -0.62291    -0.60925
    -0.60550    -0.60191    -0.59907    -0.59372    -0.59002    -0.58598
    -0.58246    -0.58126    -0.57924    -0.57915    -0.57633    -0.57482
    -0.56883    -0.56731    -0.56393    -0.56271    -0.55960    -0.55742
    -0.55081    -0.54658    -0.54232    -0.54142    -0.53757    -0.53734
    -0.53285    -0.53021    -0.52782    -0.52677    -0.52402    -0.51895
    -0.51709    -0.51687    -0.51574    -0.51507    -0.51142    -0.51057
    -0.50694    -0.50636    -0.50594    -0.50445    -0.50328    -0.50236
    -0.49996    -0.49902    -0.49780    -0.49622    -0.49519    -0.49483
    -0.49433    -0.49281    -0.49232    -0.48818    -0.48484    -0.48381
    -0.48284    -0.48258    -0.48010    -0.47854    -0.47490    -0.47087
    -0.46990    -0.46794    -0.46777    -0.46459    -0.46039    -0.45868
    -0.45478    -0.45371    -0.45319    -0.44968    -0.44713    -0.44609
    -0.44561    -0.43992    -0.43681    -0.43409    -0.43347    -0.43178
    -0.42971    -0.42831    -0.42529    -0.42422    -0.42313    -0.42127
    -0.42036    -0.41905    -0.41843    -0.41553    -0.41429    -0.41106
    -0.40809    -0.40707    -0.40350    -0.40069    -0.39810    -0.39507
    -0.39294    -0.39179    -0.39071    -0.38881    -0.38656    -0.38537
    -0.38423    -0.38055    -0.37877    -0.37551    -0.37417    -0.37027
    -0.36412    -0.36208    -0.35529    -0.35496    -0.35221    -0.34745
    -0.34621    -0.34391    -0.33978    -0.33696    -0.33494    -0.33394
    -0.33159    -0.32989    -0.32753    -0.32556    -0.30822    -0.30303
    -0.30112    -0.30005    -0.29985    -0.29613    -0.29396    -0.29229
    -0.29204    -0.29122    -0.28967    -0.28853    -0.28418    -0.28176
    -0.27552    -0.27137    -0.25439    -0.24836    -0.08138    -0.03174
    -0.01888    -0.00628    -0.00389     0.00694     0.00919     0.01483
     0.02067     0.02133
 
  Peak memory usage:   1029 Mb
  
  end of program scf
   
 Time(scf)  user:     8678.7  user+sys:     8678.7  wallclock:    27384.0
  
  start of program sole
  
    SCRF                   solvation energy
  iteration          Hartrees            kcal/mol
     0               0.0000000            0.0000
     1              -0.0167334          -10.5004
  
  solvation energy not yet converged... 
  
  Peak memory usage:    813 Mb
  
  end of program sole
   
 Time(sole)  user:        0.2  user+sys:        0.2  wallclock:        0.6
  
  start of program ch
  
  gridpoints used for charge fit        16505
    out of a possible maximum of        16505
  
   Electrostatic potential fitting constrained to reproduce
     total charge:                yes
     dipole moment:               no 
     traceless quadrupole moment: no 
     traceless octapole moment:   no 
  
  Atomic charges from electrostatic potential: 
   
 Atom       C1           C2           C3           C4           H5      
 Charge   -0.14809     -0.48184      0.19275      0.04000      0.20926
   
 Atom       C6           C7           C8           C9           H10     
 Charge   -0.41119     -0.00543      0.10604      0.07571      0.19343
   
 Atom       C11          C12          C13          C14          C15     
 Charge    0.08729      0.24919     -0.24495     -0.12477     -0.15926
   
 Atom       C16          H17          H18          H19          H20     
 Charge   -0.15486      0.15455      0.14043      0.14949      0.11846
   
 Atom       C21          C22          C23          C24          C25     
 Charge    0.26143     -0.00313     -0.17099     -0.16402     -0.10189
   
 Atom       C26          H27          H28          H29          H30     
 Charge   -0.27353      0.14351      0.15031      0.13844      0.16231
   
 Atom       Si31         Si32         C33          C34          C35     
 Charge   -0.09664      0.11681     -0.18011     -0.16834     -0.09535
   
 Atom       C36          C37          C38          H39          H40     
 Charge    0.24130     -0.30923     -0.05492      0.14518      0.13346
   
 Atom       H41          H42          H43          C44          C45     
 Charge    0.08595      0.14777      0.11317     -0.08856     -0.17162
   
 Atom       C46          C47          C48          C49          H50     
 Charge   -0.17196      0.09097     -0.22705     -0.11365      0.09650
   
 Atom       H51          H52          H53          H54          C55     
 Charge    0.14124      0.14152      0.15997      0.11911     -0.15786
   
 Atom       C56          C57          C58          C59          C60     
 Charge   -0.15656     -0.12323      0.12379     -0.25101     -0.08149
   
 Atom       H61          H62          H63          H64          H65     
 Charge    0.14001      0.14432      0.08629      0.15510      0.12524
   
 Atom       C66          C67          C68          C69          C70     
 Charge   -0.19300     -0.09303     -0.14076      0.12162     -0.26104
   
 Atom       C71          H72          H73          H74          H75     
 Charge   -0.06340      0.14105      0.10927      0.11563      0.14131
   
 Atom       H76          C77          C78          C79          C80     
 Charge    0.11209     -0.05555     -0.23264     -0.01799     -0.02182
   
 Atom       C81          C82          H83          H84          H85     
 Charge   -0.04241     -0.22158      0.12547      0.13885      0.01842
   
 Atom       H86          H87          C88          C89          C90     
 Charge    0.11609      0.15048     -0.14218     -0.16571     -0.11720
   
 Atom       C91          C92          C93          H94          H95     
 Charge    0.05099     -0.15559     -0.12472      0.13937      0.14374
   
 Atom       H96          H97          H98          O99          O100    
 Charge    0.10535      0.09085      0.13857     -0.27198     -0.27865
   
 Atom       P101         O102         N103         H104         C105    
 Charge    0.93480     -0.49797     -0.42239      0.45380      0.29057
   
 Atom       C106         C107         C108         C109         C110    
 Charge    0.03741     -0.30590      0.16663     -0.03506      0.02930
   
 Atom       C111         H112         H113         H114         H115    
 Charge   -0.27299      0.13298      0.17924      0.00371      0.12215
   
 Atom       H116         H117         N118         S119         O120    
 Charge    0.17648      0.05114     -0.58928      0.73849     -0.42669
   
 Atom       O121         C122         F123         F124         F125    
 Charge   -0.55203      0.36828     -0.07984     -0.12084     -0.12880
   
 Atom       C126         C127         C128         C129         N130    
 Charge   -0.29782     -0.22412     -0.25362     -0.22953      0.32132
   
 Atom       H131         H132         H133         H134         H135    
 Charge    0.16766      0.17049      0.16601      0.15703      0.08849
   
 Atom       S136         O137         O138         C139         C140    
 Charge    0.66221     -0.41399     -0.40085     -0.37991      0.37930
   
 Atom       N141         C142         C143         C144         H145    
 Charge   -0.54849      0.49695     -0.40980      0.13784      0.19248
   
 Atom       H146         H147         H148    
 Charge    0.06773      0.21511      0.13368
  
  sum of atomic charges:    -0.000000
   
 RMS Error   9.84E-04 hartrees
 
  Peak memory usage:    816 Mb
  
  end of program ch
   
 Time(ch)  user:       19.0  user+sys:       19.0  wallclock:       62.9
  
  start of program post
  
  Writing input files for PBF
  Peak memory usage:    759 Mb
  
  end of program post
   
 Time(post)  user:        0.9  user+sys:        0.9  wallclock:        3.3

  start of program pbf

Pbf Version 4.10

Molecular surface area:      826.17217   [A2]
Reaction field energy:       -18.11074   [kT]
  Peak memory usage: 723 Mb

  end of program pbf

 Time(pbf)  user:       10.1  user+sys:       10.2  wallclock:       28.5
  
  start of program solv
  
   number of surface charges from PBF   13488
   sum of surface charges     -0.00034
   
  nuclear repulsion energy.......   20845.045168219 hartrees
  Peak memory usage:    894 Mb
  
  end of program solv
   
 Time(solv)  user:       38.5  user+sys:       38.5  wallclock:      110.9
  
  start of program scf
  
 Energy computed with NOPS off.
  
       i  u  d  i  g                   
       t  p  i  c  r                                 RMS    maximum
       e  d  i  u  i                       energy  density   DIIS  
       r  t  s  t  d       total energy    change  change    error 
  
etot    1  N  N  1  U   -5575.59598065270           5.8E-06  1.0E-04
etot    2  N  N  1  U   -5575.59599028179  9.6E-06  0.0E+00  0.0E+00
  
  
 Energy components, in hartrees:
   (A)  Total zero-electron terms....   20847.92614268895
   (B)    Nuclear-nuclear............   20845.04516821925
   (C)    Nuclear-solvent............       2.88097446970
   (E)  Total one-electron terms.....  -49222.06856519025
   (F)    Electron-nuclear...........  -54755.15741217857
   (G)    Electron-solvent...........      -2.91897342069
   (H)    Kinetic....................    5536.00782040901
   (I)  Total two-electron terms.....   22798.54643221951
   (J)    Coulomb....................   23449.78443653816
   (K)    Exchange+Correlation.......    -651.23800431865
   (L)  Electronic energy............  -26423.52213297074  (E+I)
   (N)  Total quantum mech. energy...   -5575.59599028179  (A+L)
   (O)  Gas phase energy.............   -5575.55919121550
   (P)  Solution phase energy........   -5575.57699080630  (Q+R+S)
   (Q)    Total solute energy........   -5575.55799133080  (N-C-G)
   (R)    Total solvent energy.......      -0.01899947549  (C/2+G/2)
   (S)    Solute cavity energy.......       0.00000000000
   (U)  Reorganization energy........       0.00119988469  (Q-O)
   (V)  Solvation energy.............      -0.01779959080  (P-O)
  
 SCFE:  Solution phase energy: DFT(m06-2x)      -5575.57699080630 hartrees
        SCF iterations:   2
  
 
 HOMO energy:    -0.29459
 LUMO energy:    -0.08174
 
  Orbital energies (hartrees): 
   -77.34806   -71.48711   -51.00030   -47.08393   -44.08524   -34.64288
   -31.98601   -29.43921   -27.16322   -26.37520   -23.96437   -23.87846
   -22.80073   -22.43597   -21.38480   -20.35124   -18.02804   -17.35918
   -17.14706   -14.81160   -14.40907   -13.44488   -12.35692   -12.30766
   -11.80291   -11.73886   -11.04788   -10.82201   -10.81659   -10.62166
   -10.60657   -10.59145   -10.56399   -10.55938   -10.54454   -10.54292
   -10.54003   -10.53369   -10.53088   -10.52083   -10.51588   -10.50328
   -10.49540   -10.49168   -10.49130   -10.48578   -10.48082   -10.47871
   -10.47249   -10.47182   -10.46648   -10.46267   -10.44606   -10.43376
   -10.43348   -10.41079   -10.40936   -10.40633   -10.38655   -10.38485
   -10.38129   -10.36637   -10.36179   -10.34096   -10.34095   -10.26011
   -10.24368   -10.22828   -10.19952   -10.19926   -10.18659   -10.16602
   -10.12470   -10.11266   -10.10394   -10.08193   -10.07537   -10.01294
    -9.99724    -9.99495    -9.93982    -9.88346    -9.87258    -9.81291
    -9.72687    -9.72643    -9.71645    -9.62954    -9.54969    -9.29408
    -9.19168    -9.13194    -9.08971    -9.07696    -9.04530    -8.85029
    -8.74389    -8.57509    -8.52468    -8.09297    -7.95986    -7.81414
    -7.80290    -7.40226    -7.06489    -7.03597    -7.00129    -6.94195
    -5.91597    -5.60249    -5.09587    -4.59303    -1.73694    -1.43731
    -1.27235    -1.24007    -1.21786    -1.03466    -0.98842    -0.96801
    -0.96395    -0.96102    -0.93566    -0.93530    -0.93329    -0.92435
    -0.91864    -0.91782    -0.91221    -0.90952    -0.90942    -0.90396
    -0.89801    -0.89759    -0.88067    -0.87355    -0.86030    -0.85650
    -0.85582    -0.84756    -0.84289    -0.83738    -0.83371    -0.82028
    -0.81996    -0.81764    -0.81377    -0.81221    -0.79525    -0.78831
    -0.78776    -0.78652    -0.78519    -0.77738    -0.76903    -0.76185
    -0.75978    -0.75723    -0.75481    -0.75119    -0.75041    -0.75008
    -0.74822    -0.74136    -0.73315    -0.72679    -0.72400    -0.72062
    -0.70601    -0.69597    -0.69390    -0.69147    -0.68045    -0.67943
    -0.67099    -0.66738    -0.66403    -0.66131    -0.66049    -0.65944
    -0.65287    -0.65059    -0.64763    -0.64489    -0.64310    -0.64205
    -0.64161    -0.64046    -0.63470    -0.63378    -0.62750    -0.62574
    -0.62341    -0.62012    -0.61781    -0.61369    -0.60938    -0.60823
    -0.60732    -0.60138    -0.59668    -0.59425    -0.59274    -0.59148
    -0.59048    -0.57813    -0.57683    -0.57416    -0.57336    -0.56620
    -0.56213    -0.56201    -0.56179    -0.56150    -0.56052    -0.55640
    -0.55338    -0.55307    -0.55243    -0.54925    -0.54833    -0.54760
    -0.54544    -0.54415    -0.54320    -0.54283    -0.54276    -0.53923
    -0.53857    -0.53811    -0.53792    -0.53633    -0.53263    -0.53227
    -0.53005    -0.52626    -0.52540    -0.52390    -0.52077    -0.51964
    -0.51733    -0.51528    -0.51437    -0.51415    -0.51126    -0.51057
    -0.51056    -0.50818    -0.50806    -0.50483    -0.50480    -0.50305
    -0.50201    -0.50195    -0.50073    -0.49895    -0.49752    -0.49713
    -0.49712    -0.49610    -0.49262    -0.49256    -0.48733    -0.48719
    -0.48685    -0.48661    -0.48556    -0.48525    -0.48475    -0.48464
    -0.48180    -0.48063    -0.48014    -0.47922    -0.47906    -0.47809
    -0.47809    -0.47702    -0.47660    -0.47584    -0.47490    -0.47488
    -0.47353    -0.47320    -0.47142    -0.46830    -0.46766    -0.46291
    -0.46208    -0.45619    -0.45451    -0.45402    -0.45327    -0.45316
    -0.45191    -0.45191    -0.45105    -0.44824    -0.44434    -0.44200
    -0.44040    -0.44009    -0.43727    -0.43550    -0.43302    -0.43273
    -0.43120    -0.43008    -0.42451    -0.42380    -0.42261    -0.42130
    -0.42115    -0.42033    -0.41819    -0.40786    -0.40676    -0.40628
    -0.40400    -0.39533    -0.39226    -0.38541    -0.38499    -0.38023
    -0.37442    -0.37413    -0.37093    -0.37092    -0.36933    -0.36891
    -0.36668    -0.36618    -0.36469    -0.36453    -0.36100    -0.34717
    -0.34419    -0.34063    -0.32437    -0.29459    -0.08174    -0.03171
    -0.01900    -0.00605    -0.00405     0.00700     0.00905     0.01466
     0.02041     0.02109
 
  Peak memory usage:   1029 Mb
  
  end of program scf
   
 Time(scf)  user:     2918.0  user+sys:     2918.0  wallclock:     9254.4
  
  start of program sole
  
    SCRF                   solvation energy
  iteration          Hartrees            kcal/mol
     0               0.0000000            0.0000
     1              -0.0167334          -10.5004
     2              -0.0177996          -11.1694
  
  solvation energy not yet converged... 
  
  Peak memory usage:    813 Mb
  
  end of program sole
   
 Time(sole)  user:        0.1  user+sys:        0.1  wallclock:        0.4
  
  start of program ch
  
  gridpoints used for charge fit        16505
    out of a possible maximum of        16505
  
   Electrostatic potential fitting constrained to reproduce
     total charge:                yes
     dipole moment:               no 
     traceless quadrupole moment: no 
     traceless octapole moment:   no 
  
  Atomic charges from electrostatic potential: 
   
 Atom       C1           C2           C3           C4           H5      
 Charge   -0.14893     -0.48549      0.19567      0.03917      0.21120
   
 Atom       C6           C7           C8           C9           H10     
 Charge   -0.41275     -0.00416      0.10680      0.07469      0.19380
   
 Atom       C11          C12          C13          C14          C15     
 Charge    0.08666      0.25014     -0.24654     -0.12457     -0.15989
   
 Atom       C16          H17          H18          H19          H20     
 Charge   -0.15497      0.15533      0.14141      0.15055      0.11864
   
 Atom       C21          C22          C23          C24          C25     
 Charge    0.26193     -0.00452     -0.17094     -0.16454     -0.10215
   
 Atom       C26          H27          H28          H29          H30     
 Charge   -0.27446      0.14337      0.15125      0.13941      0.16306
   
 Atom       Si31         Si32         C33          C34          C35     
 Charge   -0.09714      0.11600     -0.18154     -0.16783     -0.09610
   
 Atom       C36          C37          C38          H39          H40     
 Charge    0.24226     -0.31092     -0.05545      0.14641      0.13432
   
 Atom       H41          H42          H43          C44          C45     
 Charge    0.08571      0.14757      0.11367     -0.09065     -0.17188
   
 Atom       C46          C47          C48          C49          H50     
 Charge   -0.17500      0.09217     -0.22745     -0.11513      0.09695
   
 Atom       H51          H52          H53          H54          C55     
 Charge    0.14233      0.14325      0.16111      0.11947     -0.15833
   
 Atom       C56          C57          C58          C59          C60     
 Charge   -0.15798     -0.12311      0.12213     -0.25161     -0.08268
   
 Atom       H61          H62          H63          H64          H65     
 Charge    0.14117      0.14547      0.08599      0.15574      0.12655
   
 Atom       C66          C67          C68          C69          C70     
 Charge   -0.19503     -0.09340     -0.14350      0.12510     -0.26268
   
 Atom       C71          H72          H73          H74          H75     
 Charge   -0.06362      0.14187      0.10943      0.11656      0.14173
   
 Atom       H76          C77          C78          C79          C80     
 Charge    0.11351     -0.05634     -0.23383     -0.01944     -0.02040
   
 Atom       C81          C82          H83          H84          H85     
 Charge   -0.04236     -0.22300      0.12632      0.13953      0.01957
   
 Atom       H86          H87          C88          C89          C90     
 Charge    0.11618      0.15138     -0.14315     -0.16663     -0.11786
   
 Atom       C91          C92          C93          H94          H95     
 Charge    0.05083     -0.15557     -0.12623      0.14056      0.14484
   
 Atom       H96          H97          H98          O99          O100    
 Charge    0.10560      0.09065      0.13972     -0.27068     -0.27807
   
 Atom       P101         O102         N103         H104         C105    
 Charge    0.93296     -0.49689     -0.42225      0.45340      0.29575
   
 Atom       C106         C107         C108         C109         C110    
 Charge    0.03835     -0.30717      0.16845     -0.03606      0.02719
   
 Atom       C111         H112         H113         H114         H115    
 Charge   -0.27357      0.13437      0.18003      0.00313      0.12228
   
 Atom       H116         H117         N118         S119         O120    
 Charge    0.17763      0.05021     -0.58759      0.73729     -0.42545
   
 Atom       O121         C122         F123         F124         F125    
 Charge   -0.55198      0.36818     -0.07954     -0.12098     -0.12876
   
 Atom       C126         C127         C128         C129         N130    
 Charge   -0.29631     -0.22713     -0.25562     -0.23052      0.32188
   
 Atom       H131         H132         H133         H134         H135    
 Charge    0.16751      0.17085      0.16686      0.15803      0.08876
   
 Atom       S136         O137         O138         C139         C140    
 Charge    0.66336     -0.41724     -0.40217     -0.37964      0.37859
   
 Atom       N141         C142         C143         C144         H145    
 Charge   -0.54779      0.49547     -0.41040      0.13832      0.19326
   
 Atom       H146         H147         H148    
 Charge    0.06757      0.21591      0.13522
  
  sum of atomic charges:    -0.000000
   
 RMS Error   9.85E-04 hartrees
 
  Peak memory usage:    816 Mb
  
  end of program ch
   
 Time(ch)  user:       19.3  user+sys:       19.3  wallclock:       57.7
  
  start of program post
  
  Writing input files for PBF
  Peak memory usage:    759 Mb
  
  end of program post
   
 Time(post)  user:        0.9  user+sys:        0.9  wallclock:        3.7

  start of program pbf

Pbf Version 4.10

Molecular surface area:      826.17217   [A2]
Reaction field energy:       -18.41468   [kT]
  Peak memory usage: 723 Mb

  end of program pbf

 Time(pbf)  user:       10.4  user+sys:       10.5  wallclock:       27.7
  
  start of program solv
  
   number of surface charges from PBF   13488
   sum of surface charges     -0.00034
   
  nuclear repulsion energy.......   20845.045168219 hartrees
  Peak memory usage:    894 Mb
  
  end of program solv
   
 Time(solv)  user:       38.5  user+sys:       38.5  wallclock:      115.6
  
  start of program scf
  
 Energy computed with NOPS off.
  
       i  u  d  i  g                   
       t  p  i  c  r                                 RMS    maximum
       e  d  i  u  i                       energy  density   DIIS  
       r  t  s  t  d       total energy    change  change    error 
  
etot    1  N  N  1  U   -5575.59629909028           4.0E-06  1.3E-04
etot    2  N  N  1  U   -5575.59629098715 -8.1E-06  0.0E+00  0.0E+00
  
  
 Energy components, in hartrees:
   (A)  Total zero-electron terms....   20847.96431502126
   (B)    Nuclear-nuclear............   20845.04516821925
   (C)    Nuclear-solvent............       2.91914680201
   (E)  Total one-electron terms.....  -49222.15916010401
   (F)    Electron-nuclear...........  -54755.16398574258
   (G)    Electron-solvent...........      -2.95743631722
   (H)    Kinetic....................    5535.96226195579
   (I)  Total two-electron terms.....   22798.59855409560
   (J)    Coulomb....................   23449.82953148620
   (K)    Exchange+Correlation.......    -651.23097739060
   (L)  Electronic energy............  -26423.56060600841  (E+I)
   (N)  Total quantum mech. energy...   -5575.59629098715  (A+L)
   (O)  Gas phase energy.............   -5575.55919121550
   (P)  Solution phase energy........   -5575.57714622955  (Q+R+S)
   (Q)    Total solute energy........   -5575.55800147194  (N-C-G)
   (R)    Total solvent energy.......      -0.01914475760  (C/2+G/2)
   (S)    Solute cavity energy.......       0.00000000000
   (U)  Reorganization energy........       0.00118974355  (Q-O)
   (V)  Solvation energy.............      -0.01795501405  (P-O)
  
 SCFE:  Solution phase energy: DFT(m06-2x)      -5575.57714622955 hartrees
        SCF iterations:   2
  
 
 HOMO energy:    -0.24874
 LUMO energy:    -0.08129
 
  Orbital energies (hartrees): 
   -90.19784   -90.16091   -78.20560   -67.01211   -67.00595   -25.29700
   -25.29541   -25.29532   -19.68915   -19.68476   -19.68413   -19.67775
   -19.64336   -19.63140   -19.59560   -14.85581   -14.79690   -14.77922
   -14.74706   -10.81259   -10.68128   -10.64533   -10.62534   -10.62081
   -10.61184   -10.59712   -10.59581   -10.59479   -10.58821   -10.58533
   -10.58482   -10.58312   -10.57484   -10.57373   -10.57239   -10.57233
   -10.57075   -10.56839   -10.56410   -10.56246   -10.56158   -10.55718
   -10.55614   -10.55428   -10.55394   -10.55379   -10.55310   -10.55282
   -10.55212   -10.55212   -10.55203   -10.55177   -10.55167   -10.55164
   -10.55125   -10.55052   -10.55018   -10.54991   -10.54954   -10.54936
   -10.54918   -10.54883   -10.54863   -10.54847   -10.54836   -10.54792
   -10.54723   -10.54720   -10.54636   -10.54607   -10.54600   -10.54587
   -10.54514   -10.54509   -10.54471   -10.54300   -10.54103   -10.54003
   -10.53805   -10.53684   -10.53610   -10.53399   -10.53382   -10.53361
   -10.53229   -10.53149   -10.53031   -10.52976   -10.52797   -10.52056
   -10.51926   -10.51903    -8.50879    -8.46939    -6.98522    -6.43127
    -6.42976    -6.42875    -6.39125    -6.39095    -6.39068    -5.54303
    -5.53669    -5.10377    -5.10267    -5.10093    -3.85277    -3.85254
    -3.85235    -3.84655    -3.84628    -3.84585    -1.46297    -1.37183
    -1.37057    -1.27157    -1.23099    -1.22157    -1.18523    -1.16070
    -1.11477    -1.09934    -1.08969    -1.08171    -1.06155    -0.99239
    -0.98788    -0.98186    -0.96770    -0.94747    -0.94385    -0.94330
    -0.93951    -0.93662    -0.93124    -0.92616    -0.92207    -0.91316
    -0.91111    -0.89082    -0.89079    -0.86867    -0.85454    -0.84779
    -0.84509    -0.84310    -0.83765    -0.83702    -0.83671    -0.83510
    -0.83256    -0.83148    -0.82999    -0.82929    -0.82853    -0.82703
    -0.82594    -0.82546    -0.82317    -0.81750    -0.81424    -0.80105
    -0.79497    -0.76908    -0.76115    -0.74542    -0.73533    -0.72795
    -0.71671    -0.71042    -0.70378    -0.69875    -0.69102    -0.68860
    -0.68769    -0.68449    -0.68109    -0.68015    -0.67907    -0.67596
    -0.67441    -0.67091    -0.67016    -0.66872    -0.66742    -0.66290
    -0.66153    -0.66102    -0.65690    -0.65253    -0.64995    -0.64565
    -0.63917    -0.63280    -0.62711    -0.62599    -0.62322    -0.60935
    -0.60574    -0.60216    -0.59922    -0.59360    -0.58998    -0.58596
    -0.58259    -0.58143    -0.57925    -0.57923    -0.57647    -0.57498
    -0.56909    -0.56761    -0.56406    -0.56297    -0.55981    -0.55744
    -0.55097    -0.54667    -0.54223    -0.54145    -0.53776    -0.53749
    -0.53276    -0.53023    -0.52792    -0.52696    -0.52421    -0.51907
    -0.51723    -0.51694    -0.51564    -0.51527    -0.51118    -0.51075
    -0.50710    -0.50662    -0.50589    -0.50477    -0.50340    -0.50248
    -0.50020    -0.49923    -0.49776    -0.49628    -0.49522    -0.49500
    -0.49410    -0.49297    -0.49250    -0.48846    -0.48499    -0.48420
    -0.48295    -0.48280    -0.48040    -0.47861    -0.47509    -0.47104
    -0.46979    -0.46818    -0.46777    -0.46499    -0.46066    -0.45895
    -0.45490    -0.45389    -0.45335    -0.44988    -0.44741    -0.44632
    -0.44587    -0.44018    -0.43665    -0.43421    -0.43395    -0.43203
    -0.42997    -0.42867    -0.42548    -0.42438    -0.42339    -0.42158
    -0.42051    -0.41906    -0.41884    -0.41575    -0.41450    -0.41127
    -0.40830    -0.40769    -0.40373    -0.40090    -0.39828    -0.39522
    -0.39305    -0.39189    -0.39098    -0.38887    -0.38672    -0.38552
    -0.38439    -0.38073    -0.37898    -0.37581    -0.37453    -0.36996
    -0.36408    -0.36231    -0.35517    -0.35512    -0.35243    -0.34764
    -0.34608    -0.34395    -0.33980    -0.33724    -0.33491    -0.33420
    -0.33144    -0.32972    -0.32775    -0.32556    -0.30838    -0.30322
    -0.30151    -0.30023    -0.30017    -0.29622    -0.29407    -0.29254
    -0.29227    -0.29130    -0.28987    -0.28881    -0.28459    -0.28228
    -0.27581    -0.27177    -0.25467    -0.24874    -0.08129    -0.03154
    -0.01917    -0.00592    -0.00405     0.00711     0.00897     0.01462
     0.02031     0.02119
 
  Peak memory usage:   1029 Mb
  
  end of program scf
   
 Time(scf)  user:     2903.1  user+sys:     2903.1  wallclock:     9193.6
  
  start of program sole
  
    SCRF                   solvation energy
  iteration          Hartrees            kcal/mol
     0               0.0000000            0.0000
     1              -0.0167334          -10.5004
     2              -0.0177996          -11.1694
     3              -0.0179550          -11.2669
  
  solvation energy not yet converged... 
  
  Peak memory usage:    813 Mb
  
  end of program sole
   
 Time(sole)  user:        0.2  user+sys:        0.2  wallclock:        0.3
  
  start of program ch
  
  gridpoints used for charge fit        16505
    out of a possible maximum of        16505
  
   Electrostatic potential fitting constrained to reproduce
     total charge:                yes
     dipole moment:               no 
     traceless quadrupole moment: no 
     traceless octapole moment:   no 
  
  Atomic charges from electrostatic potential: 
   
 Atom       C1           C2           C3           C4           H5      
 Charge   -0.14772     -0.48511      0.19494      0.03910      0.21045
   
 Atom       C6           C7           C8           C9           H10     
 Charge   -0.41196     -0.00515      0.10475      0.07648      0.19368
   
 Atom       C11          C12          C13          C14          C15     
 Charge    0.08708      0.25057     -0.24615     -0.12493     -0.16048
   
 Atom       C16          H17          H18          H19          H20     
 Charge   -0.15424      0.15508      0.14137      0.15052      0.11827
   
 Atom       C21          C22          C23          C24          C25     
 Charge    0.26169     -0.00263     -0.17061     -0.16483     -0.10225
   
 Atom       C26          H27          H28          H29          H30     
 Charge   -0.27430      0.14334      0.15113      0.13931      0.16286
   
 Atom       Si31         Si32         C33          C34          C35     
 Charge   -0.09853      0.11475     -0.18097     -0.16863     -0.09554
   
 Atom       C36          C37          C38          H39          H40     
 Charge    0.24188     -0.31033     -0.05465      0.14620      0.13441
   
 Atom       H41          H42          H43          C44          C45     
 Charge    0.08563      0.14758      0.11338     -0.08919     -0.17184
   
 Atom       C46          C47          C48          C49          H50     
 Charge   -0.17297      0.09089     -0.22785     -0.11404      0.09648
   
 Atom       H51          H52          H53          H54          C55     
 Charge    0.14199      0.14243      0.16053      0.11903     -0.15823
   
 Atom       C56          C57          C58          C59          C60     
 Charge   -0.15741     -0.12304      0.12362     -0.25187     -0.08210
   
 Atom       H61          H62          H63          H64          H65     
 Charge    0.14089      0.14514      0.08585      0.15550      0.12621
   
 Atom       C66          C67          C68          C69          C70     
 Charge   -0.19352     -0.09303     -0.14195      0.12301     -0.26249
   
 Atom       C71          H72          H73          H74          H75     
 Charge   -0.06347      0.14155      0.10932      0.11601      0.14161
   
 Atom       H76          C77          C78          C79          C80     
 Charge    0.11315     -0.05508     -0.23384     -0.01799     -0.02196
   
 Atom       C81          C82          H83          H84          H85     
 Charge   -0.04240     -0.22204      0.12600      0.13929      0.01821
   
 Atom       H86          H87          C88          C89          C90     
 Charge    0.11616      0.15113     -0.14259     -0.16632     -0.11725
   
 Atom       C91          C92          C93          H94          H95     
 Charge    0.05106     -0.15589     -0.12528      0.14023      0.14458
   
 Atom       H96          H97          H98          O99          O100    
 Charge    0.10531      0.09051      0.13937     -0.27098     -0.27796
   
 Atom       P101         O102         N103         H104         C105    
 Charge    0.93201     -0.49637     -0.42033      0.45274      0.29206
   
 Atom       C106         C107         C108         C109         C110    
 Charge    0.03814     -0.30669      0.16774     -0.03614      0.02938
   
 Atom       C111         H112         H113         H114         H115    
 Charge   -0.27365      0.13452      0.18003      0.00325      0.12172
   
 Atom       H116         H117         N118         S119         O120    
 Charge    0.17769      0.05018     -0.58894      0.73697     -0.42554
   
 Atom       O121         C122         F123         F124         F125    
 Charge   -0.55144      0.36873     -0.07972     -0.12102     -0.12886
   
 Atom       C126         C127         C128         C129         N130    
 Charge   -0.29819     -0.22512     -0.25454     -0.22977      0.32228
   
 Atom       H131         H132         H133         H134         H135    
 Charge    0.16766      0.17009      0.16637      0.15768      0.08816
   
 Atom       S136         O137         O138         C139         C140    
 Charge    0.66115     -0.41377     -0.40317     -0.37945      0.37912
   
 Atom       N141         C142         C143         C144         H145    
 Charge   -0.55060      0.49728     -0.40924      0.13772      0.19314
   
 Atom       H146         H147         H148    
 Charge    0.06756      0.21578      0.13548
  
  sum of atomic charges:    -0.000000
   
 RMS Error   9.85E-04 hartrees
 
  Peak memory usage:    816 Mb
  
  end of program ch
   
 Time(ch)  user:       19.0  user+sys:       19.0  wallclock:       56.1
  
  start of program post
  
  Writing input files for PBF
  Peak memory usage:    759 Mb
  
  end of program post
   
 Time(post)  user:        0.8  user+sys:        0.8  wallclock:        3.9

  start of program pbf

Pbf Version 4.10

Molecular surface area:      826.17217   [A2]
Reaction field energy:       -18.39076   [kT]
  Peak memory usage: 723 Mb

  end of program pbf

 Time(pbf)  user:       10.2  user+sys:       10.3  wallclock:       28.7
  
  start of program solv
  
   number of surface charges from PBF   13488
   sum of surface charges     -0.00035
   
  nuclear repulsion energy.......   20845.045168219 hartrees
  Peak memory usage:    894 Mb
  
  end of program solv
   
 Time(solv)  user:       38.6  user+sys:       38.6  wallclock:      112.0
  
  start of program scf
  
 Energy computed with NOPS off.
  
       i  u  d  i  g                   
       t  p  i  c  r                                 RMS    maximum
       e  d  i  u  i                       energy  density   DIIS  
       r  t  s  t  d       total energy    change  change    error 
  
etot    1  N  N  1  U   -5575.59626298648           6.2E-06  1.9E-04
etot    2  N  N  1  U   -5575.59624137733 -2.2E-05  0.0E+00  0.0E+00
  
  
 Energy components, in hartrees:
   (A)  Total zero-electron terms....   20847.96944274997
   (B)    Nuclear-nuclear............   20845.04516821925
   (C)    Nuclear-solvent............       2.92427453072
   (E)  Total one-electron terms.....  -49221.96733240227
   (F)    Electron-nuclear...........  -54755.00588188838
   (G)    Electron-solvent...........      -2.96253129310
   (H)    Kinetic....................    5536.00108077922
   (I)  Total two-electron terms.....   22798.40164827497
   (J)    Coulomb....................   23449.63913123718
   (K)    Exchange+Correlation.......    -651.23748296221
   (L)  Electronic energy............  -26423.56568412730  (E+I)
   (N)  Total quantum mech. energy...   -5575.59624137733  (A+L)
   (O)  Gas phase energy.............   -5575.55919121550
   (P)  Solution phase energy........   -5575.57711299614  (Q+R+S)
   (Q)    Total solute energy........   -5575.55798461496  (N-C-G)
   (R)    Total solvent energy.......      -0.01912838119  (C/2+G/2)
   (S)    Solute cavity energy.......       0.00000000000
   (U)  Reorganization energy........       0.00120660054  (Q-O)
   (V)  Solvation energy.............      -0.01792178065  (P-O)
  
 SCFE:  Solution phase energy: DFT(m06-2x)      -5575.57711299614 hartrees
        SCF iterations:   2
  
 
 HOMO energy:    -0.24926
 LUMO energy:    -0.08226
 
  Orbital energies (hartrees): 
   -90.19859   -90.16219   -78.20732   -67.01439   -67.00710   -25.29704
   -25.29519   -25.29497   -19.69016   -19.68663   -19.68152   -19.67465
   -19.64294   -19.63089   -19.59471   -14.85669   -14.80193   -14.77999
   -14.75140   -10.81269   -10.68406   -10.64520   -10.62551   -10.62303
   -10.61266   -10.59742   -10.59553   -10.59431   -10.58763   -10.58581
   -10.58524   -10.58304   -10.57429   -10.57357   -10.57080   -10.57062
   -10.56912   -10.56689   -10.56334   -10.56269   -10.56079   -10.55652
   -10.55635   -10.55416   -10.55398   -10.55365   -10.55261   -10.55253
   -10.55246   -10.55208   -10.55184   -10.55172   -10.55140   -10.55112
   -10.55105   -10.55090   -10.55020   -10.54933   -10.54929   -10.54927
   -10.54922   -10.54876   -10.54863   -10.54843   -10.54829   -10.54803
   -10.54777   -10.54694   -10.54662   -10.54653   -10.54631   -10.54576
   -10.54563   -10.54482   -10.54401   -10.54339   -10.54069   -10.53940
   -10.53896   -10.53730   -10.53664   -10.53634   -10.53422   -10.53391
   -10.53273   -10.53147   -10.53079   -10.53054   -10.52914   -10.52070
   -10.51962   -10.51885    -8.50939    -8.47061    -6.98687    -6.43188
    -6.43036    -6.42937    -6.39246    -6.39217    -6.39190    -5.54524
    -5.53780    -5.10544    -5.10433    -5.10258    -3.85499    -3.85476
    -3.85457    -3.84766    -3.84738    -3.84696    -1.46298    -1.37184
    -1.37053    -1.27101    -1.23196    -1.22244    -1.18645    -1.15972
    -1.11523    -1.10042    -1.09122    -1.08223    -1.06214    -0.99405
    -0.98828    -0.98163    -0.96733    -0.94778    -0.94402    -0.94315
    -0.93992    -0.93675    -0.93122    -0.92629    -0.92199    -0.91355
    -0.91120    -0.89118    -0.89083    -0.86877    -0.85425    -0.84797
    -0.84542    -0.84325    -0.83766    -0.83721    -0.83710    -0.83498
    -0.83293    -0.83156    -0.83034    -0.82932    -0.82867    -0.82713
    -0.82643    -0.82574    -0.82335    -0.81776    -0.81440    -0.80105
    -0.79550    -0.76958    -0.76184    -0.74572    -0.73576    -0.72839
    -0.71711    -0.71070    -0.70399    -0.69910    -0.69115    -0.68862
    -0.68773    -0.68475    -0.68143    -0.68036    -0.67933    -0.67600
    -0.67467    -0.67115    -0.67031    -0.66907    -0.66762    -0.66326
    -0.66195    -0.66118    -0.65713    -0.65265    -0.65018    -0.64592
    -0.63961    -0.63346    -0.62724    -0.62651    -0.62314    -0.60984
    -0.60634    -0.60238    -0.59930    -0.59408    -0.59045    -0.58637
    -0.58272    -0.58140    -0.57919    -0.57908    -0.57659    -0.57506
    -0.56925    -0.56773    -0.56415    -0.56287    -0.55987    -0.55777
    -0.55133    -0.54724    -0.54230    -0.54155    -0.53798    -0.53785
    -0.53311    -0.53052    -0.52815    -0.52708    -0.52435    -0.51929
    -0.51749    -0.51734    -0.51599    -0.51536    -0.51163    -0.51086
    -0.50731    -0.50664    -0.50640    -0.50496    -0.50360    -0.50291
    -0.50025    -0.49935    -0.49803    -0.49649    -0.49535    -0.49510
    -0.49430    -0.49305    -0.49273    -0.48853    -0.48492    -0.48434
    -0.48310    -0.48283    -0.48040    -0.47892    -0.47516    -0.47130
    -0.47005    -0.46833    -0.46808    -0.46532    -0.46092    -0.45930
    -0.45502    -0.45411    -0.45332    -0.45001    -0.44751    -0.44621
    -0.44618    -0.44036    -0.43654    -0.43457    -0.43417    -0.43216
    -0.42983    -0.42847    -0.42586    -0.42460    -0.42345    -0.42194
    -0.42059    -0.41904    -0.41894    -0.41594    -0.41492    -0.41163
    -0.40869    -0.40740    -0.40412    -0.40086    -0.39817    -0.39544
    -0.39316    -0.39230    -0.39097    -0.38928    -0.38700    -0.38577
    -0.38454    -0.38097    -0.37920    -0.37617    -0.37485    -0.37048
    -0.36460    -0.36266    -0.35614    -0.35605    -0.35280    -0.34792
    -0.34644    -0.34454    -0.34072    -0.33770    -0.33574    -0.33463
    -0.33211    -0.32992    -0.32767    -0.32686    -0.30874    -0.30334
    -0.30142    -0.30062    -0.30033    -0.29672    -0.29460    -0.29274
    -0.29240    -0.29187    -0.29013    -0.28905    -0.28477    -0.28255
    -0.27581    -0.27190    -0.25456    -0.24926    -0.08226    -0.03195
    -0.01911    -0.00614    -0.00425     0.00684     0.00887     0.01442
     0.02009     0.02077
 
  Peak memory usage:   1029 Mb
  
  end of program scf
   
 Time(scf)  user:     2897.3  user+sys:     2897.3  wallclock:     9305.6
  
  start of program sole
  
    SCRF                   solvation energy
  iteration          Hartrees            kcal/mol
     0               0.0000000            0.0000
     1              -0.0167334          -10.5004
     2              -0.0177996          -11.1694
     3              -0.0179550          -11.2669
     4              -0.0179218          -11.2461
  
  stopping: solvation energy converged
  
  iterations:   4    sfinal:    -11.2461 kcal/mol
  
  Peak memory usage:    813 Mb
  
  end of program sole
   
 Time(sole)  user:        0.2  user+sys:        0.2  wallclock:        0.5
  
  start of program post
  
  Writing input files for PBF
  Peak memory usage:    759 Mb
  
  end of program post
   
 Time(post)  user:        0.8  user+sys:        0.8  wallclock:        3.2

 Total cpu seconds     user:   54007.324   user+sys:   54007.324
  
 Total elapsed time:    169961 seconds

Job Type-I-Z-sulfonyl-bind-3-chkp-unrestrained-IRC-max-disp-SPE completed on tethys at Sun Mar 26 13:36:47 2017
