Job Toru-SiPh3-Type-I-E-2-chkp4-unrestrained-m06-2-restrained-unrestrained-SPE_2 started on tethys at Wed Mar  8 11:09:19 2017
jobid: tethys-0-58bfe65c

  +--------------------------------------------------------------------+
  |  Jaguar version 9.5, release  11                                   |
  |                                                                    |
  |  Copyright Schrodinger, Inc.                                       |
  |  All Rights Reserved.                                              |
  |                                                                    |
  |  The following have contributed to Jaguar (listed alphabetically): |
  |  Mike Beachy, Art Bochevarov, Dale Braden, Yixiang Cao,            |
  |  Chris Cortis, Rich Friesner, Bill Goddard, Hod Greeley,           |
  |  Tom Hughes, Leif Jacobson, Jean-Marc Langlois,                    |
  |  Daniel Mainz, Rob Murphy, Dean Philipp, Tom Pollard,              |
  |  Murco Ringnalda, Mark Watson, Haoyu Yu.                           |
  |                                                                    |
  |  Use of this program should be acknowledged in publications as:    |
  |                                                                    |
  |  Jaguar, version 9.5, Schrodinger, Inc., New York, NY, 2017.       |
  |                                                                    |
  |  A. D. Bochevarov, E. Harder, T. F. Hughes, J. R. Greenwood,       |
  |  D. A. Braden, D. M. Philipp, D. Rinaldo, M. D. Halls,             |
  |  J. Zhang, R. A. Friesner, "Jaguar: A High-Performance Quantum     |
  |  Chemistry Software Program with Strengths in Life and Materials   |
  |  Sciences", Int. J. Quantum Chem., 2013, 113(18), 2110-2142.       |
  +--------------------------------------------------------------------+
  
  start of program pre
  
  Job name: 
 Toru-SiPh3-Type-I-E-2-chkp4-unrestrained-m06-2-restrained-unrestrained-SPE_2
  Executables used: /usr/local/shared/schrodinger/current/jaguar-v9.5/bin/Linux-x86_64
  Temporary files : /scratch/ab2144/Toru-SiPh3-Type-I-E-2-chkp4-unrestrained-m06-2-restrained-unrestrained-SPE_2
  Maestro file (input):  Toru-SiPh3-Type-I-E-2-chkp4-unrestrained-m06-2-restrained-unrestrained-SPE_2.mae
  Maestro file (output): Toru-SiPh3-Type-I-E-2-chkp4-unrestrained-m06-2-restrained-unrestrained-SPE_2.01.mae
  
  basis set:             6-31g**                         
  net molecular charge:    0
  multiplicity:            1
  
  keygrid settings 
    wispc.....   7.500E-01
    ldens.....   0
    denspc....   7.500E-01
  
   grid     daf set  nls  grid set  Q type
  ------    -------  ---  --------  ------
  coarse       1      1       1        1
  medium       2      2       2        1
  fine         3      2       3        0
  ultrafine    4      2       4        1
  charge       0      1      -1        1
  gradient     5      2       4        1
  density      0      1       0        0
  DFT-fine     0      1     -13        0
  DFT-med.     0      1     -13        0
  DFT-grad     0      1     -13        0
  DFT-der2     0      1       0        0
  DFT-cphf     0      1       0        0
  LMP2-enrg    4      2       4        1
  LMP2-grad    5      2       2        1
  DFT-cphf2    0      1       0        0
  PBF-dens     0      1       0        0
  plotting     0      1       0        0
  Rel-grad     0      1     -17        0
  
  idftgrdm  100
  ndftgrdm   50    0    0
  idftgrdf  111
  ndftgrdf   85    0    0
  idftgrdg  111
  ndftgrdg   80    3    0
  idftgrdu  433
  ndftgrdu  105    0    0
  idftgrdd  433
  ndftgrdd  105    0    0
  idftgrdc  433
  ndftgrdc   26    0    0
  idftgrdp  433
  ndftgrdp   18    0    0
  
  number of basis functions....         1680
  
 Input geometry:
                                   angstroms
  atom               x                 y                 z
  C1           -2.7097000000      2.3147000000     -0.2928000000 
  C2           -5.2166000000      1.4092000000      0.6593000000 
  C3           -4.1252000000      0.4368000000      0.4348000000 
  C4           -2.9032000000      0.8734000000      0.0604000000 
  H5           -6.1889000000      1.0652000000      0.9849000000 
  C6            0.8982000000      3.9484000000     -1.9664000000 
  C7            0.9384000000      3.2882000000     -0.7993000000 
  C8           -0.2743000000      2.5566000000     -0.3343000000 
  C9           -1.4512000000      2.7399000000     -0.9626000000 
  H10           1.7578000000      4.4943000000     -2.3247000000 
  C11          -3.6938000000      3.2041000000     -0.0132000000 
  C12          -5.0071000000      2.7174000000      0.4778000000 
  C13          -6.0839000000      3.6984000000      0.7199000000 
  C14          -5.8655000000      5.0028000000      0.5241000000 
  C15          -4.5509000000      5.5039000000      0.0713000000 
  C16          -3.5322000000      4.6729000000     -0.1783000000 
  H17          -7.0589000000      3.3678000000      1.0580000000 
  H18          -6.6635000000      5.7109000000      0.7071000000 
  H19          -4.4107000000      6.5703000000     -0.0514000000 
  H20          -2.5844000000      5.0990000000     -0.4800000000 
  C21          -0.3369000000      3.9696000000     -2.7757000000 
  C22          -1.4687000000      3.4040000000     -2.2993000000 
  C23          -2.6905000000      3.4031000000     -3.1483000000 
  C24          -2.6776000000      3.9889000000     -4.3511000000 
  C25          -1.4474000000      4.6336000000     -4.8491000000 
  C26          -0.3362000000      4.6233000000     -4.1048000000 
  H27          -3.5966000000      2.9176000000     -2.8104000000 
  H28          -3.5681000000      3.9844000000     -4.9663000000 
  H29          -1.4455000000      5.1092000000     -5.8214000000 
  H30           0.5648000000      5.0926000000     -4.4799000000 
  Si31         -4.4672000000     -1.3809000000      0.7049000000 
  Si32          2.4404000000      3.4304000000      0.3097000000 
  C33          -3.6882000000     -3.7643000000     -3.2655000000 
  C34          -4.0461000000     -4.4144000000     -2.1525000000 
  C35          -4.3105000000     -3.6623000000     -0.9084000000 
  C36          -4.1643000000     -2.3263000000     -0.8776000000 
  C37          -3.8165000000     -1.6091000000     -2.1295000000 
  C38          -3.5806000000     -2.2922000000     -3.2563000000 
  H39          -3.4909000000     -4.3135000000     -4.1769000000 
  H40          -4.1383000000     -5.4927000000     -2.1590000000 
  H41          -4.6167000000     -4.2068000000     -0.0238000000 
  H42          -3.7695000000     -0.5300000000     -2.1512000000 
  H43          -3.3243000000     -1.7660000000     -4.1668000000 
  C44          -1.7761000000     -2.8549000000      4.2534000000 
  C45          -2.4289000000     -1.6915000000      4.3387000000 
  C46          -3.2448000000     -1.2166000000      3.2028000000 
  C47          -3.3418000000     -1.9494000000      2.0796000000 
  C48          -2.5554000000     -3.2040000000      1.9675000000 
  C49          -1.8328000000     -3.6415000000      3.0057000000 
  H50          -1.1869000000     -3.2105000000      5.0885000000 
  H51          -2.3728000000     -1.1022000000      5.2446000000 
  H52          -3.7631000000     -0.2717000000      3.2983000000 
  H53          -2.5441000000     -3.7744000000      1.0525000000 
  H54          -1.2633000000     -4.5584000000      2.9233000000 
  C55          -8.9356000000     -2.0002000000      2.0165000000 
  C56          -8.5389000000     -2.3823000000      0.7978000000 
  C57          -7.1345000000     -2.1895000000      0.3806000000 
  C58          -6.2431000000     -1.6383000000      1.2242000000 
  C59          -6.6961000000     -1.2074000000      2.5711000000 
  C60          -7.9698000000     -1.3808000000      2.9445000000 
  H61          -9.9643000000     -2.1395000000      2.3228000000 
  H62          -9.2463000000     -2.8320000000      0.1131000000 
  H63          -6.8519000000     -2.4892000000     -0.6188000000 
  H64          -6.0097000000     -0.7384000000      3.2591000000 
  H65          -8.2965000000     -1.0619000000      3.9259000000 
  C66           5.6344000000      0.1539000000     -0.6842000000 
  C67           4.5249000000      0.2476000000     -1.4259000000 
  C68           3.4931000000      1.2516000000     -1.0940000000 
  C69           3.6685000000      2.0824000000     -0.0538000000 
  C70           4.9164000000      1.9965000000      0.7435000000 
  C71           5.8400000000      1.0721000000      0.4533000000 
  H72           6.3849000000     -0.5894000000     -0.9199000000 
  H73           4.3793000000     -0.4144000000     -2.2695000000 
  H74           2.6156000000      1.3206000000     -1.7208000000 
  H75           5.0863000000      2.6818000000      1.5644000000 
  H76           6.7443000000      1.0029000000      1.0439000000 
  C77           0.7256000000      3.2687000000      4.6684000000 
  C78           1.7208000000      2.4448000000      4.3208000000 
  C79           2.2895000000      2.5041000000      2.9585000000 
  C80           1.8173000000      3.3868000000      2.0648000000 
  C81           0.7143000000      4.2987000000      2.4573000000 
  C82           0.1973000000      4.2409000000      3.6905000000 
  H83           0.3050000000      3.2237000000      5.6646000000 
  H84           2.1073000000      1.7282000000      5.0338000000 
  H85           3.0784000000      1.8195000000      2.6991000000 
  H86           0.3150000000      5.0078000000      1.7427000000 
  H87          -0.6109000000      4.9032000000      3.9724000000 
  C88           4.7789000000      7.4282000000     -0.4320000000 
  C89           4.8069000000      6.4521000000     -1.3461000000 
  C90           4.0668000000      5.1954000000     -1.1101000000 
  C91           3.3472000000      5.0308000000      0.0137000000 
  C92           3.3373000000      6.1108000000      1.0320000000 
  C93           4.0126000000      7.2468000000      0.8168000000 
  H94           5.3216000000      8.3490000000     -0.6024000000 
  H95           5.3730000000      6.5795000000     -2.2597000000 
  H96           4.1220000000      4.4109000000     -1.8546000000 
  H97           2.7943000000      5.9928000000      1.9583000000 
  H98           4.0038000000      8.0331000000      1.5606000000 
  O99          -1.9027000000     -0.0412000000     -0.1603000000 
  O100         -0.2205000000      1.7919000000      0.8028000000 
  P101         -0.4524000000      0.1930000000      0.5545000000 
  O102         -0.3363000000     -0.4365000000      1.9070000000 
  N103          3.5367000000     -2.6521000000     -0.5384000000 
  H104          2.9002000000     -2.2957000000     -1.2848000000 
  C105          3.2349000000     -2.1595000000      0.7019000000 
  C106          5.9015000000     -1.0886000000      3.8576000000 
  C107          4.6205000000     -0.5479000000      3.7730000000 
  C108          3.7639000000     -0.9522000000      2.7507000000 
  C109          4.1761000000     -1.9025000000      1.7962000000 
  C110          5.4674000000     -2.4531000000      1.9020000000 
  C111          6.3182000000     -2.0402000000      2.9204000000 
  H112          6.5776000000     -0.7687000000      4.6448000000 
  H113          4.2896000000      0.1970000000      4.4898000000 
  H114          2.7762000000     -0.5140000000      2.6645000000 
  H115          5.8084000000     -3.1948000000      1.1927000000 
  H116          7.3181000000     -2.4585000000      2.9805000000 
  H117          2.4908000000     -1.3737000000      0.5783000000 
  N118          0.6363000000     -0.2786000000     -0.5695000000 
  S119          0.4168000000     -1.2428000000     -1.8025000000 
  O120         -0.5744000000     -2.3154000000     -1.6334000000 
  O121          1.7511000000     -1.6438000000     -2.3274000000 
  C122         -0.2054000000     -0.1895000000     -3.2225000000 
  F123         -1.4101000000      0.3291000000     -2.9562000000 
  F124          0.6433000000      0.8180000000     -3.4561000000 
  F125         -0.2980000000     -0.9436000000     -4.3221000000 
  C126          1.6628000000     -3.4093000000      1.5370000000 
  C127          2.3766000000     -4.4525000000      2.1924000000 
  C128          2.3618000000     -4.1822000000      3.5537000000 
  C129          1.5847000000     -3.0207000000      3.7300000000 
  N130          1.1300000000     -2.6045000000      2.5398000000 
  H131          1.1582000000     -3.4761000000      0.5828000000 
  H132          2.8849000000     -5.2554000000      1.6815000000 
  H133          2.8561000000     -4.7332000000      4.3406000000 
  H134          1.3440000000     -2.4851000000      4.6380000000 
  H135          0.5216000000     -1.7771000000      2.3537000000 
  S136          4.3797000000     -4.0415000000     -1.0514000000 
  O137          5.4746000000     -3.6327000000     -1.9291000000 
  O138          4.6470000000     -4.8856000000      0.1160000000 
  C139          1.0898000000     -5.8015000000     -3.5809000000 
  C140          0.9405000000     -5.5032000000     -2.2232000000 
  N141          1.9336000000     -5.0048000000     -1.4808000000 
  C142          3.0874000000     -4.7779000000     -2.0954000000 
  C143          3.3609000000     -5.0276000000     -3.4350000000 
  C144          2.3185000000     -5.5659000000     -4.1929000000 
  H145          0.2514000000     -6.1994000000     -4.1424000000 
  H146         -0.0084000000     -5.6566000000     -1.7177000000 
  H147          4.3320000000     -4.7942000000     -3.8539000000 
  H148          2.4641000000     -5.7816000000     -5.2466000000 
   
  principal moments of inertia:
        amu*angstrom^2:    21307.45083    24871.47679    31994.68802
                g*cm^2: 3.53818501E-36 4.13000537E-36 5.31284228E-36
   
  rotational constants:
               cm^(-1):      0.00079116      0.00067779      0.00052689
                   GHz:      0.02371842      0.02031962      0.01579572
   
  Molecular weight:    1308.28 amu
   
  Stoichiometry: Si2C73PN4H56S2O7F3
[running at reduced cpu priority]
  Molecular Point Group: C1      
  Point Group used: C1
  
  nuclear repulsion energy.......   20817.857352217 hartrees
 
 Non-default options chosen:
   SCF calculation type: DFT(m06-2x)                 
   DFT=M06-2X
   Solvation energy will be computed using PBF
     -solute cavity energy will not be included
     -surface area terms will not be included
   Highest accuracy cutoffs used in SCF
   Solvent: other                                                           
   Internal dielectric constant:    1.000
   Continuum dielectric constant:   2.380
   Solvent probe molecule radius:   2.760
  
 Temporary integer options set:
     73=  2
  
  atom       vdw   vdw2    cov     mass  grid  daf  charge   basis
  C1        1.949  1.900  0.770   12.000    Y    Y      Y    6-31g**
  C2        1.949  1.900  0.770   12.000    Y    Y      Y    6-31g**
  C3        1.949  1.900  0.770   12.000    Y    Y      Y    6-31g**
  C4        1.949  1.900  0.770   12.000    Y    Y      Y    6-31g**
  H5        1.597  1.150  0.320    1.008    Y    Y      Y    6-31g**
  C6        1.949  1.900  0.770   12.000    Y    Y      Y    6-31g**
  C7        1.949  1.900  0.770   12.000    Y    Y      Y    6-31g**
  C8        1.949  1.900  0.770   12.000    Y    Y      Y    6-31g**
  C9        1.949  1.900  0.770   12.000    Y    Y      Y    6-31g**
  H10       1.597  1.150  0.320    1.008    Y    Y      Y    6-31g**
  C11       1.949  1.900  0.770   12.000    Y    Y      Y    6-31g**
  C12       1.949  1.900  0.770   12.000    Y    Y      Y    6-31g**
  C13       1.949  1.900  0.770   12.000    Y    Y      Y    6-31g**
  C14       1.949  1.900  0.770   12.000    Y    Y      Y    6-31g**
  C15       1.949  1.900  0.770   12.000    Y    Y      Y    6-31g**
  C16       1.949  1.900  0.770   12.000    Y    Y      Y    6-31g**
  H17       1.597  1.150  0.320    1.008    Y    Y      Y    6-31g**
  H18       1.597  1.150  0.320    1.008    Y    Y      Y    6-31g**
  H19       1.597  1.150  0.320    1.008    Y    Y      Y    6-31g**
  H20       1.597  1.150  0.320    1.008    Y    Y      Y    6-31g**
  C21       1.949  1.900  0.770   12.000    Y    Y      Y    6-31g**
  C22       1.949  1.900  0.770   12.000    Y    Y      Y    6-31g**
  C23       1.949  1.900  0.770   12.000    Y    Y      Y    6-31g**
  C24       1.949  1.900  0.770   12.000    Y    Y      Y    6-31g**
  C25       1.949  1.900  0.770   12.000    Y    Y      Y    6-31g**
  C26       1.949  1.900  0.770   12.000    Y    Y      Y    6-31g**
  H27       1.597  1.150  0.320    1.008    Y    Y      Y    6-31g**
  H28       1.597  1.150  0.320    1.008    Y    Y      Y    6-31g**
  H29       1.597  1.150  0.320    1.008    Y    Y      Y    6-31g**
  H30       1.597  1.150  0.320    1.008    Y    Y      Y    6-31g**
  Si31      2.217  2.147  1.110   27.977    Y    Y      Y    6-31g**
  Si32      2.217  2.147  1.110   27.977    Y    Y      Y    6-31g**
  C33       1.949  1.900  0.770   12.000    Y    Y      Y    6-31g**
  C34       1.949  1.900  0.770   12.000    Y    Y      Y    6-31g**
  C35       1.949  1.900  0.770   12.000    Y    Y      Y    6-31g**
  C36       1.949  1.900  0.770   12.000    Y    Y      Y    6-31g**
  C37       1.949  1.900  0.770   12.000    Y    Y      Y    6-31g**
  C38       1.949  1.900  0.770   12.000    Y    Y      Y    6-31g**
  H39       1.597  1.150  0.320    1.008    Y    Y      Y    6-31g**
  H40       1.597  1.150  0.320    1.008    Y    Y      Y    6-31g**
  H41       1.597  1.150  0.320    1.008    Y    Y      Y    6-31g**
  H42       1.597  1.150  0.320    1.008    Y    Y      Y    6-31g**
  H43       1.597  1.150  0.320    1.008    Y    Y      Y    6-31g**
  C44       1.949  1.900  0.770   12.000    Y    Y      Y    6-31g**
  C45       1.949  1.900  0.770   12.000    Y    Y      Y    6-31g**
  C46       1.949  1.900  0.770   12.000    Y    Y      Y    6-31g**
  C47       1.949  1.900  0.770   12.000    Y    Y      Y    6-31g**
  C48       1.949  1.900  0.770   12.000    Y    Y      Y    6-31g**
  C49       1.949  1.900  0.770   12.000    Y    Y      Y    6-31g**
  H50       1.597  1.150  0.320    1.008    Y    Y      Y    6-31g**
  H51       1.597  1.150  0.320    1.008    Y    Y      Y    6-31g**
  H52       1.597  1.150  0.320    1.008    Y    Y      Y    6-31g**
  H53       1.597  1.150  0.320    1.008    Y    Y      Y    6-31g**
  H54       1.597  1.150  0.320    1.008    Y    Y      Y    6-31g**
  C55       1.949  1.900  0.770   12.000    Y    Y      Y    6-31g**
  C56       1.949  1.900  0.770   12.000    Y    Y      Y    6-31g**
  C57       1.949  1.900  0.770   12.000    Y    Y      Y    6-31g**
  C58       1.949  1.900  0.770   12.000    Y    Y      Y    6-31g**
  C59       1.949  1.900  0.770   12.000    Y    Y      Y    6-31g**
  C60       1.949  1.900  0.770   12.000    Y    Y      Y    6-31g**
  H61       1.597  1.150  0.320    1.008    Y    Y      Y    6-31g**
  H62       1.597  1.150  0.320    1.008    Y    Y      Y    6-31g**
  H63       1.597  1.150  0.320    1.008    Y    Y      Y    6-31g**
  H64       1.597  1.150  0.320    1.008    Y    Y      Y    6-31g**
  H65       1.597  1.150  0.320    1.008    Y    Y      Y    6-31g**
  C66       1.949  1.900  0.770   12.000    Y    Y      Y    6-31g**
  C67       1.949  1.900  0.770   12.000    Y    Y      Y    6-31g**
  C68       1.949  1.900  0.770   12.000    Y    Y      Y    6-31g**
  C69       1.949  1.900  0.770   12.000    Y    Y      Y    6-31g**
  C70       1.949  1.900  0.770   12.000    Y    Y      Y    6-31g**
  C71       1.949  1.900  0.770   12.000    Y    Y      Y    6-31g**
  H72       1.597  1.150  0.320    1.008    Y    Y      Y    6-31g**
  H73       1.597  1.150  0.320    1.008    Y    Y      Y    6-31g**
  H74       1.597  1.150  0.320    1.008    Y    Y      Y    6-31g**
  H75       1.597  1.150  0.320    1.008    Y    Y      Y    6-31g**
  H76       1.597  1.150  0.320    1.008    Y    Y      Y    6-31g**
  C77       1.949  1.900  0.770   12.000    Y    Y      Y    6-31g**
  C78       1.949  1.900  0.770   12.000    Y    Y      Y    6-31g**
  C79       1.949  1.900  0.770   12.000    Y    Y      Y    6-31g**
  C80       1.949  1.900  0.770   12.000    Y    Y      Y    6-31g**
  C81       1.949  1.900  0.770   12.000    Y    Y      Y    6-31g**
  C82       1.949  1.900  0.770   12.000    Y    Y      Y    6-31g**
  H83       1.597  1.150  0.320    1.008    Y    Y      Y    6-31g**
  H84       1.597  1.150  0.320    1.008    Y    Y      Y    6-31g**
  H85       1.597  1.150  0.320    1.008    Y    Y      Y    6-31g**
  H86       1.597  1.150  0.320    1.008    Y    Y      Y    6-31g**
  H87       1.597  1.150  0.320    1.008    Y    Y      Y    6-31g**
  C88       1.949  1.900  0.770   12.000    Y    Y      Y    6-31g**
  C89       1.949  1.900  0.770   12.000    Y    Y      Y    6-31g**
  C90       1.949  1.900  0.770   12.000    Y    Y      Y    6-31g**
  C91       1.949  1.900  0.770   12.000    Y    Y      Y    6-31g**
  C92       1.949  1.900  0.770   12.000    Y    Y      Y    6-31g**
  C93       1.949  1.900  0.770   12.000    Y    Y      Y    6-31g**
  H94       1.597  1.150  0.320    1.008    Y    Y      Y    6-31g**
  H95       1.597  1.150  0.320    1.008    Y    Y      Y    6-31g**
  H96       1.597  1.150  0.320    1.008    Y    Y      Y    6-31g**
  H97       1.597  1.150  0.320    1.008    Y    Y      Y    6-31g**
  H98       1.597  1.150  0.320    1.008    Y    Y      Y    6-31g**
  O99       1.702  1.600  0.730   15.995    Y    Y      Y    6-31g**
  O100      1.702  1.600  0.730   15.995    Y    Y      Y    6-31g**
  P101      2.147  2.074  1.060   30.974    Y    Y      Y    6-31g**
  O102      1.702  1.600  0.730   15.995    Y    Y      Y    6-31g**
  N103      1.831  1.600  0.750   14.003    Y    Y      Y    6-31g**
  H104      1.597  1.150  0.320    1.008    Y    Y      Y    6-31g**
  C105      1.949  1.900  0.770   12.000    Y    Y      Y    6-31g**
  C106      1.949  1.900  0.770   12.000    Y    Y      Y    6-31g**
  C107      1.949  1.900  0.770   12.000    Y    Y      Y    6-31g**
  C108      1.949  1.900  0.770   12.000    Y    Y      Y    6-31g**
  C109      1.949  1.900  0.770   12.000    Y    Y      Y    6-31g**
  C110      1.949  1.900  0.770   12.000    Y    Y      Y    6-31g**
  C111      1.949  1.900  0.770   12.000    Y    Y      Y    6-31g**
  H112      1.597  1.150  0.320    1.008    Y    Y      Y    6-31g**
  H113      1.597  1.150  0.320    1.008    Y    Y      Y    6-31g**
  H114      1.597  1.150  0.320    1.008    Y    Y      Y    6-31g**
  H115      1.597  1.150  0.320    1.008    Y    Y      Y    6-31g**
  H116      1.597  1.150  0.320    1.008    Y    Y      Y    6-31g**
  H117      1.597  1.150  0.320    1.008    Y    Y      Y    6-31g**
  N118      1.831  1.600  0.750   14.003    Y    Y      Y    6-31g**
  S119      2.070  1.900  1.020   31.972    Y    Y      Y    6-31g**
  O120      1.702  1.600  0.730   15.995    Y    Y      Y    6-31g**
  O121      1.702  1.600  0.730   15.995    Y    Y      Y    6-31g**
  C122      1.949  1.900  0.770   12.000    Y    Y      Y    6-31g**
  F123      1.736  1.682  0.720   18.998    Y    Y      Y    6-31g**
  F124      1.736  1.682  0.720   18.998    Y    Y      Y    6-31g**
  F125      1.736  1.682  0.720   18.998    Y    Y      Y    6-31g**
  C126      1.949  1.900  0.770   12.000    Y    Y      Y    6-31g**
  C127      1.949  1.900  0.770   12.000    Y    Y      Y    6-31g**
  C128      1.949  1.900  0.770   12.000    Y    Y      Y    6-31g**
  C129      1.949  1.900  0.770   12.000    Y    Y      Y    6-31g**
  N130      1.831  1.600  0.750   14.003    Y    Y      Y    6-31g**
  H131      1.597  1.150  0.320    1.008    Y    Y      Y    6-31g**
  H132      1.597  1.150  0.320    1.008    Y    Y      Y    6-31g**
  H133      1.597  1.150  0.320    1.008    Y    Y      Y    6-31g**
  H134      1.597  1.150  0.320    1.008    Y    Y      Y    6-31g**
  H135      1.597  1.150  0.320    1.008    Y    Y      Y    6-31g**
  S136      2.070  1.900  1.020   31.972    Y    Y      Y    6-31g**
  O137      1.702  1.600  0.730   15.995    Y    Y      Y    6-31g**
  O138      1.702  1.600  0.730   15.995    Y    Y      Y    6-31g**
  C139      1.949  1.900  0.770   12.000    Y    Y      Y    6-31g**
  C140      1.949  1.900  0.770   12.000    Y    Y      Y    6-31g**
  N141      1.831  1.600  0.750   14.003    Y    Y      Y    6-31g**
  C142      1.949  1.900  0.770   12.000    Y    Y      Y    6-31g**
  C143      1.949  1.900  0.770   12.000    Y    Y      Y    6-31g**
  C144      1.949  1.900  0.770   12.000    Y    Y      Y    6-31g**
  H145      1.597  1.150  0.320    1.008    Y    Y      Y    6-31g**
  H146      1.597  1.150  0.320    1.008    Y    Y      Y    6-31g**
  H147      1.597  1.150  0.320    1.008    Y    Y      Y    6-31g**
  H148      1.597  1.150  0.320    1.008    Y    Y      Y    6-31g**
  
  Peak memory usage:    768 Mb
  
  end of program pre
   
 Time(pre)  user:        0.9  user+sys:        0.9  wallclock:        1.3
  
  start of program onee
  
  
  ** Halting job in response to a termination signal **
  
