Job B3LYP-SPE-Toru-SiPh3-Type-I-Z-1-chkp-unrestrained.mol started on tethys at Thu Nov 24 15:05:48 2016
jobid: tethys-0-583701cb

  +--------------------------------------------------------------------+
  |  Jaguar version 8.4, release  16                                   |
  |                                                                    |
  |  Copyright Schrodinger, Inc.                                       |
  |  All Rights Reserved.                                              |
  |                                                                    |
  |  The following have contributed to Jaguar (listed alphabetically): |
  |  Mike Beachy, Art Bochevarov, Dale Braden, Yixiang Cao,            |
  |  Chris Cortis, Rich Friesner, Bill Goddard, Hod Greeley,           |
  |  Tom Hughes, Jean-Marc Langlois, Daniel Mainz, Rob Murphy,         |
  |  Dean Philipp, Tom Pollard, Murco Ringnalda.                       |
  |                                                                    |
  |  Use of this program should be acknowledged in publications as:    |
  |                                                                    |
  |  Jaguar, version 8.4, Schrodinger, Inc., New York, NY, 2013.       |
  |                                                                    |
  |  A. D. Bochevarov, E. Harder, T. F. Hughes, J. R. Greenwood,       |
  |  D. A. Braden, D. M. Philipp, D. Rinaldo, M. D. Halls,             |
  |  J. Zhang, R. A. Friesner, "Jaguar: A High-Performance Quantum     |
  |  Chemistry Software Program with Strengths in Life and Materials   |
  |  Sciences", Int. J. Quantum Chem., 2013, 113(18), 2110-2142.       |
  +--------------------------------------------------------------------+
  
  start of program pre
  
  Job name: B3LYP-SPE-Toru-SiPh3-Type-I-Z-1-chkp-unrestrained.mol
  Executables used: /usr/local/shared/schrodinger/current/jaguar-v84016/bin/Linux-x86_64
  Temporary files : /home/ab2144/.schrodinger/tmp/B3LYP-SPE-Toru-SiPh3-Type-I-Z-1-chkp-unrestrained.mol
  Maestro file (input):  B3LYP-SPE-Toru-SiPh3-Type-I-Z-1-chkp-unrestrained.mol.mae
  Maestro file (output): B3LYP-SPE-Toru-SiPh3-Type-I-Z-1-chkp-unrestrained.mol.01.mae
  
  
  basis set:             6-31g**         
  net molecular charge:    0
  multiplicity:            1
  
  keygrid settings 
    wispc.....   7.500E-01
    ldens.....   0
    denspc....   7.500E-01
  
   grid     daf set  nls  grid set  Q type
  ------    -------  ---  --------  ------
  coarse       1      1       1        1
  medium       2      2       2        1
  fine         3      2       3        0
  ultrafine    4      2       4        1
  charge       0      1      -1        1
  gradient     5      2       4        1
  density      0      1       0        0
  DFT-fine     0      1     -13        0
  DFT-med.     0      1     -13        0
  DFT-grad     0      1     -13        0
  DFT-der2     0      1       0        0
  DFT-cphf     0      1       0        0
  LMP2-enrg    4      2       4        1
  LMP2-grad    5      2       2        1
  DFT-cphf2    0      1       0        0
  PBF-dens     0      1       0        0
  plotting     0      1       0        0
  
  idftgrdm  100
  ndftgrdm   50    0    0
  idftgrdf  111
  ndftgrdf   85    0    0
  idftgrdg  111
  ndftgrdg   80    3    0
  idftgrdu  433
  ndftgrdu  105    0    0
  idftgrdd  433
  ndftgrdd  105    0    0
  idftgrdc  433
  ndftgrdc   26    0    0
  idftgrdp  433
  ndftgrdp   18    0    0
  
  number of basis functions....         1571
  
 Input geometry:
                                   angstroms
  atom               x                 y                 z
  C1           -0.9178000000      5.4538000000     -0.0198000000 
  C2            0.2403000000      4.5181000000     -0.0636000000 
  C3           -0.7397000000      6.7620000000     -0.2371000000 
  C4            1.4636000000      5.0053000000     -0.3672000000 
  C5            0.0713000000      3.0543000000      0.1868000000 
  C6            1.6507000000      6.4565000000     -0.6000000000 
  C7            2.6187000000      4.0944000000     -0.4686000000 
  C8            0.6058000000      7.2882000000     -0.5338000000 
  C9            1.1023000000      2.2106000000     -0.0705000000 
  C10          -1.2241000000      2.5267000000      0.6923000000 
  C11           2.4565000000      2.7694000000     -0.3448000000 
  O12           0.9897000000      0.8596000000      0.1545000000 
  Si13          3.9395000000      1.6324000000     -0.3751000000 
  C14          -1.7591000000      2.9020000000      1.8759000000 
  C15          -1.9609000000      1.5723000000     -0.1733000000 
  C16          -3.1366000000      2.4693000000      2.2244000000 
  C17          -1.0316000000      3.7356000000      2.8648000000 
  C18          -3.8445000000      1.7167000000      1.3714000000 
  C19          -3.7118000000      2.9077000000      3.5110000000 
  C20          -3.2386000000      1.2397000000      0.1073000000 
  Si21         -4.2992000000      0.1505000000     -0.9836000000 
  O22          -1.2932000000      1.0134000000     -1.2270000000 
  C23          -1.6152000000      4.0868000000      4.0170000000 
  C24          -2.9940000000      3.6654000000      4.3474000000 
  P25          -0.1171000000     -0.0133000000     -0.7172000000 
  O26           0.5061000000     -0.6016000000     -1.9584000000 
  O27          -0.6916000000     -0.9594000000      0.3242000000 
  C28           5.5396000000      2.5788000000     -0.4397000000 
  C29           3.8420000000      0.6298000000      1.1909000000 
  C30           3.9203000000      0.5680000000     -1.8970000000 
  C31          -5.6999000000      1.1572000000     -1.6782000000 
  C32          -3.4131000000     -0.5493000000     -2.4662000000 
  C33          -4.9551000000     -1.2072000000      0.1099000000 
  C34           5.8470000000      3.2976000000     -1.5329000000 
  C35           6.5084000000      2.5095000000      0.6818000000 
  C36           3.7123000000      1.2580000000      2.3721000000 
  C37           3.8593000000     -0.8527000000      1.1556000000 
  C38           4.8810000000     -0.3510000000     -2.0910000000 
  C39           2.8958000000      0.7821000000     -2.9464000000 
  C40          -6.6005000000      0.5771000000     -2.4892000000 
  C41          -5.8114000000      2.6073000000     -1.3839000000 
  C42          -2.9667000000      0.2764000000     -3.4286000000 
  C43          -3.2489000000     -2.0145000000     -2.6351000000 
  C44          -6.2639000000     -1.2985000000      0.4033000000 
  C45          -4.0088000000     -2.1746000000      0.7133000000 
  C46           7.1239000000      4.0374000000     -1.6036000000 
  C47           7.9877000000      3.9824000000     -0.5833000000 
  C48           7.6665000000      3.1781000000      0.6128000000 
  C49           3.6142000000      0.4798000000      3.6242000000 
  C50           3.6531000000     -0.8567000000      3.5869000000 
  C51           3.7789000000     -1.5548000000      2.2928000000 
  C52           4.8756000000     -1.1875000000     -3.3090000000 
  C53           3.9254000000     -1.0163000000     -4.2354000000 
  C54           2.8929000000      0.0230000000     -4.0494000000 
  C55          -7.7083000000      1.3707000000     -3.0603000000 
  C56          -7.8115000000      2.6753000000     -2.7814000000 
  C57          -6.8148000000      3.3239000000     -1.9057000000 
  C58          -2.2592000000     -0.2648000000     -4.6073000000 
  C59          -2.0922000000     -1.5853000000     -4.7405000000 
  C60          -2.6256000000     -2.5025000000     -3.7143000000 
  C61          -6.7534000000     -2.3682000000      1.2983000000 
  C62          -5.8938000000     -3.2454000000      1.8292000000 
  C63          -4.4539000000     -3.1438000000      1.5217000000 
  C64           3.9440000000     -5.9611000000      0.4047000000 
  C65           2.8502000000     -5.1598000000      0.7171000000 
  C66           2.5042000000     -4.0864000000     -0.1216000000 
  C67           3.2776000000     -3.8471000000     -1.2735000000 
  C68           4.3705000000     -4.6547000000     -1.5815000000 
  C69           4.7050000000     -5.7163000000     -0.7427000000 
  C70           1.3939000000     -3.1436000000      0.1077000000 
  N71           0.8738000000     -2.7498000000      1.3220000000 
  S72           0.2985000000     -3.7178000000      2.6001000000 
  O73          -0.6874000000     -4.6806000000      2.0968000000 
  O74           1.4235000000     -4.1999000000      3.4118000000 
  C75          -0.5000000000     -2.3596000000      3.5161000000 
  C76           0.2055000000     -1.7385000000      4.5439000000 
  C77          -0.3993000000     -0.6281000000      5.1333000000 
  C78          -1.6502000000     -0.2168000000      4.6741000000 
  C79          -2.2649000000     -0.9431000000      3.6521000000 
  N80          -1.6960000000     -2.0062000000      3.0756000000 
  N81           0.1563000000     -3.2202000000     -2.3037000000 
  C82           0.4779000000     -4.2249000000     -3.1165000000 
  C83           0.2433000000     -5.4568000000     -2.4577000000 
  C84          -0.2230000000     -5.1508000000     -1.1910000000 
  C85          -0.2091000000     -3.7303000000     -1.0484000000 
  H86          -1.9175000000      5.0892000000      0.1749000000 
  H87          -1.5849000000      7.4374000000     -0.2045000000 
  H88           2.6343000000      6.8490000000     -0.8263000000 
  H89           3.5971000000      4.5211000000     -0.6348000000 
  H90           0.7430000000      8.3480000000     -0.7055000000 
  H91          -0.0138000000      4.0545000000      2.6804000000 
  H92          -4.8577000000      1.4229000000      1.6206000000 
  H93          -4.7173000000      2.6145000000      3.7883000000 
  H94          -1.0668000000      4.6895000000      4.7295000000 
  H95          -3.4266000000      3.9759000000      5.2898000000 
  H96           0.2186000000     -1.9202000000      1.1272000000 
  H97           5.1652000000      3.3470000000     -2.3733000000 
  H98           6.2952000000      1.9159000000      1.5597000000 
  H99           3.6791000000      2.3395000000      2.4236000000 
  H100          3.9316000000     -1.3806000000      0.2175000000 
  H101          5.6646000000     -0.4971000000     -1.3578000000 
  H102          2.1405000000      1.5478000000     -2.8279000000 
  H103         -6.5300000000     -0.4764000000     -2.7315000000 
  H104         -5.0828000000      3.1010000000     -0.7559000000 
  H105         -3.1003000000      1.3481000000     -3.3443000000 
  H106         -3.6423000000     -2.7040000000     -1.9032000000 
  H107         -6.9788000000     -0.5907000000      0.0085000000 
  H108         -2.9541000000     -2.1085000000      0.4942000000 
  H109          7.3586000000      4.6226000000     -2.4833000000 
  H110          8.9242000000      4.5227000000     -0.6338000000 
  H111          8.3729000000      3.1266000000      1.4312000000 
  H112          3.5152000000      0.9941000000      4.5712000000 
  H113          3.5892000000     -1.4286000000      4.5033000000 
  H114          3.7963000000     -2.6364000000      2.2664000000 
  H115          5.6379000000     -1.9434000000     -3.4457000000 
  H116          3.9160000000     -1.6321000000     -5.1253000000 
  H117          2.1366000000      0.1722000000     -4.8092000000 
  H118         -8.4351000000      0.8936000000     -3.7049000000 
  H119         -8.6218000000      3.2584000000     -3.1996000000 
  H120         -6.8950000000      4.3819000000     -1.6917000000 
  H121         -1.8748000000      0.4102000000     -5.3609000000 
  H122         -1.5725000000     -1.9843000000     -5.6018000000 
  H123         -2.5090000000     -3.5717000000     -3.8366000000 
  H124         -7.8094000000     -2.4377000000      1.5254000000 
  H125         -6.2508000000     -4.0282000000      2.4858000000 
  H126         -3.7593000000     -3.8525000000      1.9540000000 
  H127          4.2106000000     -6.7785000000      1.0678000000 
  H128          2.2953000000     -5.3518000000      1.6265000000 
  H129          3.0313000000     -3.0028000000     -1.9088000000 
  H130          4.9627000000     -4.4463000000     -2.4673000000 
  H131          5.5593000000     -6.3460000000     -0.9730000000 
  H132          1.4856000000     -2.2523000000     -0.5064000000 
  H133          1.1748000000     -2.1103000000      4.8505000000 
  H134          0.1027000000     -0.0908000000      5.9318000000 
  H135         -2.1458000000      0.6496000000      5.0995000000 
  H136         -3.2451000000     -0.6606000000      3.2765000000 
  H137          0.2594000000     -2.1833000000     -2.4278000000 
  H138          0.8639000000     -4.0442000000     -4.1111000000 
  H139          0.4164000000     -6.4356000000     -2.8817000000 
  H140         -0.5077000000     -5.8317000000     -0.4016000000 
  H141         -0.8998000000     -3.1363000000     -0.4635000000 
   
  principal moments of inertia:
        amu*angstrom^2:    17489.81018    22290.90167    27129.09005
                g*cm^2: 2.90425095E-36 3.70149085E-36 4.50489083E-36
   
  rotational constants:
               cm^(-1):      0.00096385      0.00075626      0.00062139
                   GHz:      0.02889563      0.02267199      0.01862868
   
  Molecular weight:    1177.32 amu
   
  Stoichiometry: Si2C72PN3H56SO6
  Molecular Point Group: C1      
  Point Group used: C1
  
  nuclear repulsion energy.......   17461.305836203 hartrees
 
 Non-default options chosen:
   SCF calculation type: DFT(b3lyp)                  
   DFT=Becke_3_Parameter/HF+Slater+Becke88+VWN+LYP (B3LYP)
   Solvation energy will be computed using PBF
     -solute cavity energy will not be included
     -surface area terms will not be included
   Highest accuracy cutoffs used in SCF
   Solvent: other                                                           
   Internal dielectric constant:    1.000
   Continuum dielectric constant:   2.380
   Solvent probe molecule radius:   2.760
  
 Temporary integer options set:
     73=  2
  
  atom       vdw   vdw2    cov     mass  grid  daf  charge   basis
  C1        1.949  1.900  0.770   12.000    Y    Y      Y    6-31g**
  C2        1.949  1.900  0.770   12.000    Y    Y      Y    6-31g**
  C3        1.949  1.900  0.770   12.000    Y    Y      Y    6-31g**
  C4        1.949  1.900  0.770   12.000    Y    Y      Y    6-31g**
  C5        1.949  1.900  0.770   12.000    Y    Y      Y    6-31g**
  C6        1.949  1.900  0.770   12.000    Y    Y      Y    6-31g**
  C7        1.949  1.900  0.770   12.000    Y    Y      Y    6-31g**
  C8        1.949  1.900  0.770   12.000    Y    Y      Y    6-31g**
  C9        1.949  1.900  0.770   12.000    Y    Y      Y    6-31g**
  C10       1.949  1.900  0.770   12.000    Y    Y      Y    6-31g**
  C11       1.949  1.900  0.770   12.000    Y    Y      Y    6-31g**
  O12       1.702  1.600  0.730   15.995    Y    Y      Y    6-31g**
  Si13      2.217  2.147  1.110   27.977    Y    Y      Y    6-31g**
  C14       1.949  1.900  0.770   12.000    Y    Y      Y    6-31g**
  C15       1.949  1.900  0.770   12.000    Y    Y      Y    6-31g**
  C16       1.949  1.900  0.770   12.000    Y    Y      Y    6-31g**
  C17       1.949  1.900  0.770   12.000    Y    Y      Y    6-31g**
  C18       1.949  1.900  0.770   12.000    Y    Y      Y    6-31g**
  C19       1.949  1.900  0.770   12.000    Y    Y      Y    6-31g**
  C20       1.949  1.900  0.770   12.000    Y    Y      Y    6-31g**
  Si21      2.217  2.147  1.110   27.977    Y    Y      Y    6-31g**
  O22       1.702  1.600  0.730   15.995    Y    Y      Y    6-31g**
  C23       1.949  1.900  0.770   12.000    Y    Y      Y    6-31g**
  C24       1.949  1.900  0.770   12.000    Y    Y      Y    6-31g**
  P25       2.147  2.074  1.060   30.974    Y    Y      Y    6-31g**
  O26       1.702  1.600  0.730   15.995    Y    Y      Y    6-31g**
  O27       1.702  1.600  0.730   15.995    Y    Y      Y    6-31g**
  C28       1.949  1.900  0.770   12.000    Y    Y      Y    6-31g**
  C29       1.949  1.900  0.770   12.000    Y    Y      Y    6-31g**
  C30       1.949  1.900  0.770   12.000    Y    Y      Y    6-31g**
  C31       1.949  1.900  0.770   12.000    Y    Y      Y    6-31g**
  C32       1.949  1.900  0.770   12.000    Y    Y      Y    6-31g**
  C33       1.949  1.900  0.770   12.000    Y    Y      Y    6-31g**
  C34       1.949  1.900  0.770   12.000    Y    Y      Y    6-31g**
  C35       1.949  1.900  0.770   12.000    Y    Y      Y    6-31g**
  C36       1.949  1.900  0.770   12.000    Y    Y      Y    6-31g**
  C37       1.949  1.900  0.770   12.000    Y    Y      Y    6-31g**
  C38       1.949  1.900  0.770   12.000    Y    Y      Y    6-31g**
  C39       1.949  1.900  0.770   12.000    Y    Y      Y    6-31g**
  C40       1.949  1.900  0.770   12.000    Y    Y      Y    6-31g**
  C41       1.949  1.900  0.770   12.000    Y    Y      Y    6-31g**
  C42       1.949  1.900  0.770   12.000    Y    Y      Y    6-31g**
  C43       1.949  1.900  0.770   12.000    Y    Y      Y    6-31g**
  C44       1.949  1.900  0.770   12.000    Y    Y      Y    6-31g**
  C45       1.949  1.900  0.770   12.000    Y    Y      Y    6-31g**
  C46       1.949  1.900  0.770   12.000    Y    Y      Y    6-31g**
  C47       1.949  1.900  0.770   12.000    Y    Y      Y    6-31g**
  C48       1.949  1.900  0.770   12.000    Y    Y      Y    6-31g**
  C49       1.949  1.900  0.770   12.000    Y    Y      Y    6-31g**
  C50       1.949  1.900  0.770   12.000    Y    Y      Y    6-31g**
  C51       1.949  1.900  0.770   12.000    Y    Y      Y    6-31g**
  C52       1.949  1.900  0.770   12.000    Y    Y      Y    6-31g**
  C53       1.949  1.900  0.770   12.000    Y    Y      Y    6-31g**
  C54       1.949  1.900  0.770   12.000    Y    Y      Y    6-31g**
  C55       1.949  1.900  0.770   12.000    Y    Y      Y    6-31g**
  C56       1.949  1.900  0.770   12.000    Y    Y      Y    6-31g**
  C57       1.949  1.900  0.770   12.000    Y    Y      Y    6-31g**
  C58       1.949  1.900  0.770   12.000    Y    Y      Y    6-31g**
  C59       1.949  1.900  0.770   12.000    Y    Y      Y    6-31g**
  C60       1.949  1.900  0.770   12.000    Y    Y      Y    6-31g**
  C61       1.949  1.900  0.770   12.000    Y    Y      Y    6-31g**
  C62       1.949  1.900  0.770   12.000    Y    Y      Y    6-31g**
  C63       1.949  1.900  0.770   12.000    Y    Y      Y    6-31g**
  C64       1.949  1.900  0.770   12.000    Y    Y      Y    6-31g**
  C65       1.949  1.900  0.770   12.000    Y    Y      Y    6-31g**
  C66       1.949  1.900  0.770   12.000    Y    Y      Y    6-31g**
  C67       1.949  1.900  0.770   12.000    Y    Y      Y    6-31g**
  C68       1.949  1.900  0.770   12.000    Y    Y      Y    6-31g**
  C69       1.949  1.900  0.770   12.000    Y    Y      Y    6-31g**
  C70       1.949  1.900  0.770   12.000    Y    Y      Y    6-31g**
  N71       1.831  1.600  0.750   14.003    Y    Y      Y    6-31g**
  S72       2.070  1.900  1.020   31.972    Y    Y      Y    6-31g**
  O73       1.702  1.600  0.730   15.995    Y    Y      Y    6-31g**
  O74       1.702  1.600  0.730   15.995    Y    Y      Y    6-31g**
  C75       1.949  1.900  0.770   12.000    Y    Y      Y    6-31g**
  C76       1.949  1.900  0.770   12.000    Y    Y      Y    6-31g**
  C77       1.949  1.900  0.770   12.000    Y    Y      Y    6-31g**
  C78       1.949  1.900  0.770   12.000    Y    Y      Y    6-31g**
  C79       1.949  1.900  0.770   12.000    Y    Y      Y    6-31g**
  N80       1.831  1.600  0.750   14.003    Y    Y      Y    6-31g**
  N81       1.831  1.600  0.750   14.003    Y    Y      Y    6-31g**
  C82       1.949  1.900  0.770   12.000    Y    Y      Y    6-31g**
  C83       1.949  1.900  0.770   12.000    Y    Y      Y    6-31g**
  C84       1.949  1.900  0.770   12.000    Y    Y      Y    6-31g**
  C85       1.949  1.900  0.770   12.000    Y    Y      Y    6-31g**
  H86       1.597  1.150  0.320    1.008    Y    Y      Y    6-31g**
  H87       1.597  1.150  0.320    1.008    Y    Y      Y    6-31g**
  H88       1.597  1.150  0.320    1.008    Y    Y      Y    6-31g**
  H89       1.597  1.150  0.320    1.008    Y    Y      Y    6-31g**
  H90       1.597  1.150  0.320    1.008    Y    Y      Y    6-31g**
  H91       1.597  1.150  0.320    1.008    Y    Y      Y    6-31g**
  H92       1.597  1.150  0.320    1.008    Y    Y      Y    6-31g**
  H93       1.597  1.150  0.320    1.008    Y    Y      Y    6-31g**
  H94       1.597  1.150  0.320    1.008    Y    Y      Y    6-31g**
  H95       1.597  1.150  0.320    1.008    Y    Y      Y    6-31g**
  H96       1.597  1.150  0.320    1.008    Y    Y      Y    6-31g**
  H97       1.597  1.150  0.320    1.008    Y    Y      Y    6-31g**
  H98       1.597  1.150  0.320    1.008    Y    Y      Y    6-31g**
  H99       1.597  1.150  0.320    1.008    Y    Y      Y    6-31g**
  H100      1.597  1.150  0.320    1.008    Y    Y      Y    6-31g**
  H101      1.597  1.150  0.320    1.008    Y    Y      Y    6-31g**
  H102      1.597  1.150  0.320    1.008    Y    Y      Y    6-31g**
  H103      1.597  1.150  0.320    1.008    Y    Y      Y    6-31g**
  H104      1.597  1.150  0.320    1.008    Y    Y      Y    6-31g**
  H105      1.597  1.150  0.320    1.008    Y    Y      Y    6-31g**
  H106      1.597  1.150  0.320    1.008    Y    Y      Y    6-31g**
  H107      1.597  1.150  0.320    1.008    Y    Y      Y    6-31g**
  H108      1.597  1.150  0.320    1.008    Y    Y      Y    6-31g**
  H109      1.597  1.150  0.320    1.008    Y    Y      Y    6-31g**
  H110      1.597  1.150  0.320    1.008    Y    Y      Y    6-31g**
  H111      1.597  1.150  0.320    1.008    Y    Y      Y    6-31g**
  H112      1.597  1.150  0.320    1.008    Y    Y      Y    6-31g**
  H113      1.597  1.150  0.320    1.008    Y    Y      Y    6-31g**
  H114      1.597  1.150  0.320    1.008    Y    Y      Y    6-31g**
  H115      1.597  1.150  0.320    1.008    Y    Y      Y    6-31g**
  H116      1.597  1.150  0.320    1.008    Y    Y      Y    6-31g**
  H117      1.597  1.150  0.320    1.008    Y    Y      Y    6-31g**
  H118      1.597  1.150  0.320    1.008    Y    Y      Y    6-31g**
  H119      1.597  1.150  0.320    1.008    Y    Y      Y    6-31g**
  H120      1.597  1.150  0.320    1.008    Y    Y      Y    6-31g**
  H121      1.597  1.150  0.320    1.008    Y    Y      Y    6-31g**
  H122      1.597  1.150  0.320    1.008    Y    Y      Y    6-31g**
  H123      1.597  1.150  0.320    1.008    Y    Y      Y    6-31g**
  H124      1.597  1.150  0.320    1.008    Y    Y      Y    6-31g**
  H125      1.597  1.150  0.320    1.008    Y    Y      Y    6-31g**
  H126      1.597  1.150  0.320    1.008    Y    Y      Y    6-31g**
  H127      1.597  1.150  0.320    1.008    Y    Y      Y    6-31g**
  H128      1.597  1.150  0.320    1.008    Y    Y      Y    6-31g**
  H129      1.597  1.150  0.320    1.008    Y    Y      Y    6-31g**
  H130      1.597  1.150  0.320    1.008    Y    Y      Y    6-31g**
  H131      1.597  1.150  0.320    1.008    Y    Y      Y    6-31g**
  H132      1.597  1.150  0.320    1.008    Y    Y      Y    6-31g**
  H133      1.597  1.150  0.320    1.008    Y    Y      Y    6-31g**
  H134      1.597  1.150  0.320    1.008    Y    Y      Y    6-31g**
  H135      1.597  1.150  0.320    1.008    Y    Y      Y    6-31g**
  H136      1.597  1.150  0.320    1.008    Y    Y      Y    6-31g**
  H137      1.597  1.150  0.320    1.008    Y    Y      Y    6-31g**
  H138      1.597  1.150  0.320    1.008    Y    Y      Y    6-31g**
  H139      1.597  1.150  0.320    1.008    Y    Y      Y    6-31g**
  H140      1.597  1.150  0.320    1.008    Y    Y      Y    6-31g**
  H141      1.597  1.150  0.320    1.008    Y    Y      Y    6-31g**
  
  Peak memory usage:    526 Mb
  
  end of program pre
   
 Time(pre)  user:        0.0  user+sys:        0.0  wallclock:        1.4
  
  start of program onee
  
  smallest eigenvalue of S:    2.246E-04
  number of canonical orbitals.....         1565
  Peak memory usage:    700 Mb
  
  end of program onee
   
 Time(onee)  user:       23.0  user+sys:       24.0  wallclock:       60.2
  
  start of program hfig
  
  initial wavefunction generated automatically from atomic wavefunctions
 
  Irreducible     Total no   No of occupied orbitals 
  representation  orbitals   Shell_1  Shell_2    ...
  No Symm         1565        308
  ------------------------
  Orbital occupation/shell    1.000
 
  Peak memory usage:    639 Mb
  
  end of program hfig
   
 Time(hfig)  user:       33.0  user+sys:       33.0  wallclock:       68.1
  
  start of program probe
  
  Peak memory usage:    633 Mb
  
  end of program probe
   
 Time(probe)  user:       25.0  user+sys:       25.0  wallclock:       63.2
  
  start of program grid
  
  
   grid     grid set  grid #  grid sym
  ------    --------  ------  --------
  coarse        0        0        1
  medium        2        1        1
  fine          0        0        1
  ultrafine     4        2        1
  charge       -1        3        1
  gradient      4        2        1
  density       0        0        1
  DFT-fine    -13        4        1
  DFT-med.    -13        4        1
  DFT-grad    -13        4        1
  DFT-der2      0        0        1
  DFT-cphf      0        0        1
  LMP2-enrg     4        2        1
  LMP2-grad     2        1        1
  DFT-cphf2     0        0        1
  PBF-dens      0        0        1
  plotting      0        0        1
  
   
  number of gridpoints: 
     atom        C1       C2       C3       C4       C5       C6       C7
  grid # 1       97      101       94      102      100       96       92
  grid # 2      338      360      337      366      358      336      337
  grid # 3       36       30       43       47       15       46       24
  grid # 4    14816    14816    14816    14816    14816    14816    14816
   
  number of gridpoints: 
     atom        C8       C9      C10      C11      O12     Si13      C14
  grid # 1       94       97      100       99      112      468      101
  grid # 2      336      355      353      360      440      468      356
  grid # 3       49       20       11        7       57        6       19
  grid # 4    14816    14816    14816    14816    23902    22912    14816
   
  number of gridpoints: 
     atom       C15      C16      C17      C18      C19      C20     Si21
  grid # 1       98      101       96       93       96      100      473
  grid # 2      359      363      337      328      335      362      473
  grid # 3       22       24       25        9       25       11        8
  grid # 4    14816    14816    14816    14816    14816    14816    22912
   
  number of gridpoints: 
     atom       O22      C23      C24      P25      O26      O27      C28
  grid # 1      112       94       93      445      115      116      101
  grid # 2      437      338      335      445      453      434      359
  grid # 3       50       28       27        8       45       35       15
  grid # 4    23902    14816    14816    23204    23902    23902    14816
   
  number of gridpoints: 
     atom       C29      C30      C31      C32      C33      C34      C35
  grid # 1      100      101      101      101       99       92       97
  grid # 2      356      359      357      356      357      335      339
  grid # 3        8       11       10        9       10       20       34
  grid # 4    14816    14816    14816    14816    14816    14816    14816
   
  number of gridpoints: 
     atom       C36      C37      C38      C39      C40      C41      C42
  grid # 1       92       96       92       96       92       96       92
  grid # 2      334      338      334      335      335      339      335
  grid # 3       15       25       18       16       18       30       19
  grid # 4    14816    14816    14816    14816    14816    14816    14816
   
  number of gridpoints: 
     atom       C43      C44      C45      C46      C47      C48      C49
  grid # 1       96       92       95       94       94       94       92
  grid # 2      337      336      332      335      336      336      335
  grid # 3       19       25       10       41       47       47       29
  grid # 4    14816    14816    14816    14816    14816    14816    14816
   
  number of gridpoints: 
     atom       C50      C51      C52      C53      C54      C55      C56
  grid # 1       93       93       93       93       93       93       94
  grid # 2      333      335      330      334      334      335      335
  grid # 3       33       30       28       29       28       39       47
  grid # 4    14816    14816    14816    14816    14816    14816    14816
   
  number of gridpoints: 
     atom       C57      C58      C59      C60      C61      C62      C63
  grid # 1       94       93       93       93       94       93       92
  grid # 2      336      333      333      330      335      335      333
  grid # 3       43       33       31       25       42       39       21
  grid # 4    14816    14816    14816    14816    14816    14816    14816
   
  number of gridpoints: 
     atom       C64      C65      C66      C67      C68      C69      C70
  grid # 1       96       95       97       95       95       97       91
  grid # 2      333      328      349      332      332      332      322
  grid # 3       34       18        9       17       33       38        7
  grid # 4    14816    14816    14816    14816    14816    14816    14816
   
  number of gridpoints: 
     atom       N71      S72      O73      O74      C75      C76      C77
  grid # 1       98      444      121      121       98       96       96
  grid # 2      359      444      489      482      356      332      332
  grid # 3       10       12      171      183       37       40       43
  grid # 4    15000    32664    23902    23902    14816    14816    14816
   
  number of gridpoints: 
     atom       C78      C79      N80      N81      C82      C83      C84
  grid # 1       96       96      110       96       94       93       93
  grid # 2      331      340      409      343      326      329      329
  grid # 3       41       38       44        7        6       16       17
  grid # 4    14816    14816    15000    15000    14816    14816    14816
   
  number of gridpoints: 
     atom       C85      H86      H87      H88      H89      H90      H91
  grid # 1       91      112      118      118      109      118      113
  grid # 2      320      432      452      446      425      453      435
  grid # 3        7      230      417      360      180      423      238
  grid # 4    14816    16416    16416    16416    16416    16416    16416
   
  number of gridpoints: 
     atom       H92      H93      H94      H95      H96      H97      H98
  grid # 1      111      117      117      117       99      112      111
  grid # 2      425      443      449      449      388      436      433
  grid # 3      181      334      396      395       57      256      240
  grid # 4    16416    16416    16416    16416    16416    16416    16416
   
  number of gridpoints: 
     atom       H99     H100     H101     H102     H103     H104     H105
  grid # 1      112      106      112      110      112      111      112
  grid # 2      437      414      432      431      439      430      437
  grid # 3      248       85      249      198      269      210      259
  grid # 4    16416    16416    16416    16416    16416    16416    16416
   
  number of gridpoints: 
     atom      H106     H107     H108     H109     H110     H111     H112
  grid # 1      110      111      104      118      118      118      117
  grid # 2      426      435      409      452      453      453      448
  grid # 3      201      231       62      415      424      424      360
  grid # 4    16416    16416    16416    16416    16416    16416    16416
   
  number of gridpoints: 
     atom      H113     H114     H115     H116     H117     H118     H119
  grid # 1      114      111      114      117      116      118      118
  grid # 2      438      430      443      450      446      453      453
  grid # 3      294      210      305      374      334      418      424
  grid # 4    16416    16416    16416    16416    16416    16416    16416
   
  number of gridpoints: 
     atom      H120     H121     H122     H123     H124     H125     H126
  grid # 1      118      117      116      115      118      118      112
  grid # 2      453      450      448      443      452      452      438
  grid # 3      419      375      356      303      419      422      263
  grid # 4    16416    16416    16416    16416    16416    16416    16416
   
  number of gridpoints: 
     atom      H127     H128     H129     H130     H131     H132     H133
  grid # 1      118      110      107      114      118       98      110
  grid # 2      450      423      415      439      451      395      431
  grid # 3      414      170      100      292      419       34      204
  grid # 4    16416    16416    16416    16416    16416    16416    16416
   
  number of gridpoints: 
     atom      H134     H135     H136     H137     H138     H139     H140
  grid # 1      116      114      111      103      114      117      114
  grid # 2      449      438      431      400      451      459      447
  grid # 3      374      269      212       83      326      443      318
  grid # 4    16416    16416    16416    16416    16416    16416    16416
   
  number of gridpoints: 
     atom      H141    total
  grid # 1      104    16036
  grid # 2      407    54631
  grid # 3       77    18492
  grid # 4    16416  2276152
   
  Peak memory usage:    666 Mb
  
  end of program grid
   
 Time(grid)  user:      348.0  user+sys:      349.0  wallclock:      736.6
  
  start of program rwr
  
  Peak memory usage:    648 Mb
  
  end of program rwr
   
 Time(rwr)  user:       60.0  user+sys:       65.0  wallclock:      131.8
  
  start of program scf
  
 number of electrons..........        616
 number of alpha electrons....        308
 number of beta electrons.....        308
 number of orbitals, total....       1565
 number of doubly-occ'd orbs..        308
 number of open shell orbs....          0
 number of occupied orbitals..        308
 number of virtual orbitals...       1257
 number of hamiltonians.......          1
 number of shells.............          1
 SCF type: DFT=Becke_3_Parameter/HF+Slater+Becke88+VWN+LYP (B3LYP)
  
       i  u  d  i  g                   
       t  p  i  c  r                                 RMS    maximum
       e  d  i  u  i                       energy  density   DIIS  
       r  t  s  t  d       total energy    change  change    error 
  
etot    1  N  N  1  U   -4700.90805431626           3.0E-03  1.2E-01
etot    2  N  Y  1  U   -4698.73039815811 -2.2E+00  4.4E-03  1.3E-01
etot    3  N  Y  1  U   -4672.41587926577 -2.6E+01  4.3E-03  1.5E-01
etot    4  N  Y  1  U   -4704.45125129320  3.2E+01  2.6E-03  8.7E-02
etot    5  N  Y  1  U   -4694.60618019353 -9.8E+00  2.3E-03  1.0E-01
etot    6  N  Y  1  U   -4706.09475449715  1.1E+01  1.6E-03  4.4E-02
etot    7  N  Y  1  U   -4709.44544408501  3.4E+00  1.0E-03  3.8E-02
etot    8  N  Y  1  U   -4711.36838587126  1.9E+00  3.7E-04  1.2E-02
etot    9  N  Y  1  U   -4711.45708232034  8.9E-02  1.9E-04  7.6E-03
etot   10  N  Y  1  U   -4711.50334437023  4.6E-02  7.0E-05  3.1E-03
etot   11  N  Y  1  U   -4711.51174466262  8.4E-03  3.7E-05  1.8E-03
etot   12  N  Y  1  U   -4711.51397466998  2.2E-03  2.9E-05  1.2E-03
etot   13  N  Y  1  U   -4711.51512756431  1.2E-03  1.7E-05  6.7E-04
etot   14  N  Y  1  U   -4711.51551992291  3.9E-04  8.6E-06  3.7E-04
etot   15  N  Y  1  U   -4711.51565807685  1.4E-04  8.0E-06  2.5E-04
etot   16  N  Y  1  U   -4711.51573765180  8.0E-05  4.1E-06  1.5E-04
etot   17  N  N  1  U   -4711.51575368154  1.6E-05  0.0E+00  0.0E+00
  
  
 Energy components, in hartrees:
   (A)  Nuclear repulsion............   17461.30583620319
   (E)  Total one-electron terms.....  -41264.26898200611
   (F)    Electron-nuclear...........  -45938.72574546632
   (H)    Kinetic....................    4674.45676346023
   (I)  Total two-electron terms.....   19091.44739212138
   (J)    Coulomb....................   19666.56281198636
   (K)    Exchange+Correlation.......    -575.11541986498
   (L)  Electronic energy............  -22172.82158988473  (E+I)
   (M)  -V/T.........................       2.00792797797  (-(A+F+I)/H)
   (N)  Total energy.................   -4711.51575368154  (A+L)
  
 SCFE: SCF energy: DFT(b3lyp)     -4711.51575368154 hartrees   iterations:  17
  
 
 HOMO energy:    -0.20509
 LUMO energy:    -0.08857
 
  Orbital energies (hartrees): 
   -89.11699   -77.21695   -66.11065   -66.10877   -19.17924   -19.17801
   -19.15181   -19.15015   -19.09704   -19.09690   -14.38873   -14.37094
   -14.35139   -10.27989   -10.25993   -10.25295   -10.25246   -10.25084
   -10.23528   -10.23016   -10.22339   -10.22001   -10.21669   -10.21326
   -10.20697   -10.20472   -10.20446   -10.20407   -10.20324   -10.20261
   -10.20181   -10.20113   -10.20003   -10.19986   -10.19952   -10.19832
   -10.19546   -10.19436   -10.19410   -10.19290   -10.19259   -10.19095
   -10.19087   -10.18868   -10.18862   -10.18844   -10.18843   -10.18740
   -10.18711   -10.18651   -10.18641   -10.18569   -10.18519   -10.18515
   -10.18469   -10.18449   -10.18392   -10.18327   -10.18324   -10.18319
   -10.18292   -10.18237   -10.18144   -10.17957   -10.17877   -10.17827
   -10.17823   -10.17790   -10.17742   -10.17707   -10.17684   -10.17669
   -10.17665   -10.17616   -10.17570   -10.17491   -10.17433   -10.17188
   -10.17103   -10.16952   -10.16673   -10.16606   -10.16567   -10.16234
   -10.16078    -8.14304    -6.66153    -6.10813    -6.10693    -6.10594
    -5.25755    -5.25532    -4.82657    -4.82503    -4.82291    -3.61653
    -3.61610    -3.61592    -3.61429    -3.61397    -3.61368    -1.11515
    -1.09025    -1.04789    -1.00497    -0.99727    -0.97220    -0.96596
    -0.94527    -0.92491    -0.87340    -0.86707    -0.86049    -0.84053
    -0.83698    -0.83556    -0.83311    -0.83018    -0.82819    -0.81973
    -0.81726    -0.80841    -0.79736    -0.79364    -0.78897    -0.77739
    -0.75644    -0.75557    -0.74660    -0.74518    -0.74419    -0.73955
    -0.73666    -0.73494    -0.73384    -0.73323    -0.73177    -0.73090
    -0.73061    -0.72930    -0.72726    -0.72716    -0.72420    -0.72387
    -0.71539    -0.70642    -0.66046    -0.64816    -0.64702    -0.62561
    -0.62106    -0.61799    -0.61659    -0.61129    -0.60434    -0.60158
    -0.59503    -0.59329    -0.59239    -0.58905    -0.58893    -0.58709
    -0.58647    -0.58496    -0.58135    -0.57989    -0.57836    -0.57777
    -0.57681    -0.57577    -0.57105    -0.56768    -0.56391    -0.56024
    -0.54128    -0.52988    -0.52815    -0.52365    -0.52106    -0.51977
    -0.50606    -0.50395    -0.50221    -0.50185    -0.50094    -0.49876
    -0.49623    -0.49512    -0.48655    -0.48498    -0.47610    -0.47009
    -0.46717    -0.46533    -0.46441    -0.46031    -0.45787    -0.45665
    -0.45313    -0.45135    -0.44783    -0.44504    -0.44428    -0.44365
    -0.44173    -0.43919    -0.43694    -0.43627    -0.43555    -0.43488
    -0.43214    -0.43130    -0.43051    -0.42884    -0.42866    -0.42753
    -0.42683    -0.42567    -0.42369    -0.42260    -0.42183    -0.42006
    -0.41690    -0.41613    -0.41516    -0.41355    -0.41259    -0.41187
    -0.41002    -0.40804    -0.40632    -0.40357    -0.40243    -0.40045
    -0.39392    -0.39253    -0.38774    -0.38606    -0.38420    -0.38143
    -0.37948    -0.37771    -0.37740    -0.37160    -0.36784    -0.36342
    -0.36284    -0.36104    -0.35644    -0.35575    -0.35460    -0.35116
    -0.34914    -0.34884    -0.34658    -0.34493    -0.34324    -0.34019
    -0.33843    -0.33766    -0.33412    -0.33225    -0.33123    -0.32930
    -0.32793    -0.32610    -0.32321    -0.32098    -0.31996    -0.31865
    -0.31561    -0.31234    -0.30914    -0.30849    -0.30184    -0.30077
    -0.29519    -0.29259    -0.28847    -0.28666    -0.28311    -0.28274
    -0.28135    -0.27906    -0.27475    -0.27345    -0.27103    -0.26606
    -0.26215    -0.26193    -0.25846    -0.25241    -0.24699    -0.24640
    -0.24430    -0.24206    -0.24102    -0.24036    -0.23753    -0.23675
    -0.23550    -0.23395    -0.23294    -0.23146    -0.23058    -0.22632
    -0.21975    -0.20509    -0.08857    -0.04890    -0.04728    -0.03171
    -0.02784    -0.01804    -0.01679    -0.01352    -0.00969    -0.00668
 
  Peak memory usage:    843 Mb
  
  end of program scf
   
 Time(scf)  user:    11433.0  user+sys:    11560.0  wallclock:    22184.1
  
  start of program ch
  
  gridpoints used for charge fit        15979
    out of a possible maximum of        18492
  
   Electrostatic potential fitting constrained to reproduce
     total charge:                yes
     dipole moment:               no 
     traceless quadrupole moment: no 
     traceless octapole moment:   no 
  
  Atomic charges from electrostatic potential: 
   
 Atom       C1           C2           C3           C4           C5      
 Charge   -0.09517     -0.03736     -0.16112      0.18332      0.07794
   
 Atom       C6           C7           C8           C9           C10     
 Charge   -0.20403     -0.32363     -0.09593      0.01859     -0.14843
   
 Atom       C11          O12          Si13         C14          C15     
 Charge    0.09133     -0.32345      0.03375      0.09601      0.20141
   
 Atom       C16          C17          C18          C19          C20     
 Charge    0.26964     -0.15987     -0.39861     -0.26194     -0.03229
   
 Atom       Si21         O22          C23          C24          P25     
 Charge    0.24321     -0.32339     -0.16695     -0.07209      1.04383
   
 Atom       O26          O27          C28          C29          C30     
 Charge   -0.60108     -0.62342      0.06663      0.12831      0.08039
   
 Atom       C31          C32          C33          C34          C35     
 Charge   -0.01610      0.10754     -0.02966     -0.11892     -0.14351
   
 Atom       C36          C37          C38          C39          C40     
 Charge   -0.04851     -0.18084     -0.18664     -0.12898     -0.06751
   
 Atom       C41          C42          C43          C44          C45     
 Charge   -0.13355     -0.24572     -0.16748     -0.13426      0.04237
   
 Atom       C46          C47          C48          C49          C50     
 Charge   -0.13829     -0.11924     -0.11664     -0.20819     -0.07418
   
 Atom       C51          C52          C53          C54          C55     
 Charge   -0.14261     -0.07650     -0.17030     -0.08152     -0.14742
   
 Atom       C56          C57          C58          C59          C60     
 Charge   -0.11519     -0.12239     -0.03918     -0.20969     -0.05079
   
 Atom       C61          C62          C63          C64          C65     
 Charge   -0.15511     -0.12818     -0.12792     -0.09356     -0.31429
   
 Atom       C66          C67          C68          C69          C70     
 Charge    0.49013     -0.26874     -0.09526     -0.13927     -0.06351
   
 Atom       N71          S72          O73          O74          C75     
 Charge   -0.37064      0.61911     -0.40517     -0.42647      0.39350
   
 Atom       C76          C77          C78          C79          N80     
 Charge   -0.29319      0.02804     -0.19303      0.18241     -0.37292
   
 Atom       N81          C82          C83          C84          C85     
 Charge   -0.01373     -0.08840     -0.20929     -0.19723      0.10958
   
 Atom       H86          H87          H88          H89          H90     
 Charge    0.10394      0.12924      0.12914      0.14716      0.11659
   
 Atom       H91          H92          H93          H94          H95     
 Charge    0.12810      0.17382      0.14095      0.13053      0.10921
   
 Atom       H96          H97          H98          H99          H100    
 Charge    0.29848      0.10795      0.08909      0.07701      0.10275
   
 Atom       H101         H102         H103         H104         H105    
 Charge    0.11790      0.10661      0.07873      0.10411      0.13990
   
 Atom       H106         H107         H108         H109         H110    
 Charge    0.06565      0.10074      0.04381      0.11944      0.11774
   
 Atom       H111         H112         H113         H114         H115    
 Charge    0.11907      0.12478      0.11121      0.11811      0.10240
   
 Atom       H116         H117         H118         H119         H120    
 Charge    0.11801      0.10806      0.12234      0.11622      0.11484
   
 Atom       H121         H122         H123         H124         H125    
 Charge    0.10721      0.12049      0.09801      0.12062      0.12040
   
 Atom       H126         H127         H128         H129         H130    
 Charge    0.09677      0.13122      0.18998      0.11462      0.11955
   
 Atom       H131         H132         H133         H134         H135    
 Charge    0.13012      0.12483      0.16418      0.11484      0.11765
   
 Atom       H136         H137         H138         H139         H140    
 Charge    0.07025      0.23655      0.15996      0.16475      0.17764
   
 Atom       H141    
 Charge    0.07815
  
  sum of atomic charges:     0.000000
   
 RMS Error   8.93E-04 hartrees
 
  Peak memory usage:    584 Mb
  
  end of program ch
   
 Time(ch)  user:       18.0  user+sys:       19.0  wallclock:       38.8
  
  start of program post
  
  Writing input files for PBF
  Peak memory usage:    534 Mb
  
  end of program post
   
 Time(post)  user:        0.0  user+sys:        0.0  wallclock:        0.5

  start of program pbf

Pbf Version 4.00

Molecular surface area:      789.51305   [A2]
Reaction field energy:       -12.48410   [kT]
  Peak memory usage: 556 Mb

  end of program pbf

 Time(pbf)  user:       13.9  user+sys:       14.0  wallclock:       28.7
  
  start of program solv
  
   number of surface charges from PBF   12864
   sum of surface charges     -0.00022
   
  nuclear repulsion energy.......   17461.305836203 hartrees
  Peak memory usage:    694 Mb
  
  end of program solv
   
 Time(solv)  user:       36.0  user+sys:       36.0  wallclock:       65.6
  
  start of program scf
  
  
       i  u  d  i  g                   
       t  p  i  c  r                                 RMS    maximum
       e  d  i  u  i                       energy  density   DIIS  
       r  t  s  t  d       total energy    change  change    error 
  
etot    1  N  N  1  U   -4711.54277876802           5.6E-05  7.9E-04
etot    2  N  Y  1  U   -4711.54301371260  2.3E-04  2.4E-05  1.4E-03
etot    3  N  Y  1  U   -4711.54342661516  4.1E-04  8.6E-06  6.7E-04
etot    4  N  Y  1  U   -4711.54352519551  9.9E-05  3.7E-06  1.7E-04
etot    5  N  N  1  U   -4711.54353981421  1.5E-05  0.0E+00  0.0E+00
  
  
 Energy components, in hartrees:
   (A)  Total zero-electron terms....   17463.10172807809
   (B)    Nuclear-nuclear............   17461.30583620319
   (C)    Nuclear-solvent............       1.79589187490
   (E)  Total one-electron terms.....  -41267.14149728067
   (F)    Electron-nuclear...........  -45939.81411793159
   (G)    Electron-solvent...........      -1.82444185812
   (H)    Kinetic....................    4674.49706250905
   (I)  Total two-electron terms.....   19092.49622938837
   (J)    Coulomb....................   19667.62661392238
   (K)    Exchange+Correlation.......    -575.13038453401
   (L)  Electronic energy............  -22174.64526789230  (E+I)
   (N)  Total quantum mech. energy...   -4711.54353981421  (A+L)
   (O)  Gas phase energy.............   -4711.51575368154
   (P)  Solution phase energy........   -4711.52926482259  (Q+R+S)
   (Q)    Total solute energy........   -4711.51498983098  (N-C-G)
   (R)    Total solvent energy.......      -0.01427499161  (C/2+G/2)
   (S)    Solute cavity energy.......       0.00000000000
   (U)  Reorganization energy........       0.00076385056  (Q-O)
   (V)  Solvation energy.............      -0.01351114105  (P-O)
  
 SCFE:  Solution phase energy: DFT(b3lyp)      -4711.52926482259 hartrees
        SCF iterations:   5
  
 
 HOMO energy:    -0.20628
 LUMO energy:    -0.08794
 
  Orbital energies (hartrees): 
   -89.12186   -77.21834   -66.11235   -66.11154   -19.18120   -19.17951
   -19.15624   -19.15366   -19.09836   -19.09767   -14.38742   -14.37314
   -14.35283   -10.28025   -10.26127   -10.25457   -10.25283   -10.25050
   -10.23541   -10.22938   -10.22202   -10.21973   -10.21596   -10.21253
   -10.20540   -10.20533   -10.20497   -10.20300   -10.20184   -10.20124
   -10.20064   -10.20002   -10.19977   -10.19973   -10.19928   -10.19866
   -10.19727   -10.19470   -10.19329   -10.19262   -10.19192   -10.19154
   -10.19063   -10.19036   -10.18982   -10.18979   -10.18954   -10.18896
   -10.18807   -10.18785   -10.18738   -10.18729   -10.18692   -10.18662
   -10.18581   -10.18547   -10.18547   -10.18535   -10.18452   -10.18432
   -10.18430   -10.18392   -10.18308   -10.18154   -10.18121   -10.18082
   -10.17978   -10.17959   -10.17951   -10.17915   -10.17895   -10.17852
   -10.17833   -10.17806   -10.17779   -10.17708   -10.17603   -10.17571
   -10.17355   -10.17268   -10.16963   -10.16775   -10.16693   -10.16597
   -10.16353    -8.14779    -6.66292    -6.11285    -6.11177    -6.11065
    -5.25924    -5.25808    -4.82797    -4.82642    -4.82429    -3.61822
    -3.61779    -3.61761    -3.61704    -3.61674    -3.61644    -1.11992
    -1.09197    -1.04963    -1.01007    -0.99607    -0.97339    -0.96697
    -0.94689    -0.92615    -0.87468    -0.86597    -0.86182    -0.84231
    -0.83997    -0.83670    -0.83447    -0.83326    -0.83106    -0.81921
    -0.81829    -0.80942    -0.79790    -0.79194    -0.79011    -0.77675
    -0.75650    -0.75499    -0.74797    -0.74667    -0.74347    -0.74118
    -0.73930    -0.73617    -0.73517    -0.73440    -0.73337    -0.73285
    -0.73216    -0.73043    -0.73023    -0.72864    -0.72717    -0.72654
    -0.71619    -0.70738    -0.66038    -0.64858    -0.64758    -0.62586
    -0.62207    -0.61728    -0.61665    -0.61265    -0.60537    -0.60015
    -0.59626    -0.59455    -0.59434    -0.59005    -0.58933    -0.58878
    -0.58738    -0.58591    -0.58261    -0.58223    -0.57932    -0.57900
    -0.57822    -0.57580    -0.57366    -0.56806    -0.56310    -0.56051
    -0.54248    -0.53106    -0.52883    -0.52547    -0.52125    -0.52051
    -0.50682    -0.50528    -0.50294    -0.50252    -0.50171    -0.50067
    -0.49740    -0.49585    -0.48741    -0.48602    -0.47628    -0.47096
    -0.46751    -0.46588    -0.46461    -0.46400    -0.45817    -0.45643
    -0.45385    -0.45154    -0.44823    -0.44619    -0.44552    -0.44431
    -0.44196    -0.43978    -0.43782    -0.43727    -0.43660    -0.43604
    -0.43316    -0.43279    -0.43045    -0.43007    -0.42951    -0.42865
    -0.42697    -0.42652    -0.42540    -0.42418    -0.42286    -0.41911
    -0.41792    -0.41699    -0.41581    -0.41549    -0.41334    -0.41218
    -0.41080    -0.40863    -0.40608    -0.40429    -0.40350    -0.40042
    -0.39466    -0.39251    -0.38889    -0.38664    -0.38611    -0.38304
    -0.38074    -0.37895    -0.37684    -0.37219    -0.36881    -0.36441
    -0.36279    -0.36181    -0.35818    -0.35683    -0.35501    -0.35423
    -0.35127    -0.35015    -0.34915    -0.34731    -0.34483    -0.34257
    -0.33933    -0.33923    -0.33515    -0.33433    -0.33203    -0.33000
    -0.32885    -0.32828    -0.32620    -0.32432    -0.32284    -0.32011
    -0.31727    -0.31412    -0.31282    -0.31016    -0.30334    -0.30099
    -0.29668    -0.29406    -0.28969    -0.28806    -0.28534    -0.28508
    -0.28271    -0.27974    -0.27573    -0.27336    -0.27257    -0.26770
    -0.26275    -0.26112    -0.25882    -0.25421    -0.24961    -0.24936
    -0.24767    -0.24385    -0.24345    -0.24198    -0.24042    -0.23804
    -0.23746    -0.23673    -0.23417    -0.23341    -0.23198    -0.22888
    -0.22127    -0.20628    -0.08794    -0.04959    -0.04794    -0.03182
    -0.02965    -0.01932    -0.01620    -0.01514    -0.00951    -0.00872
 
  Peak memory usage:    839 Mb
  
  end of program scf
   
 Time(scf)  user:     2757.0  user+sys:     2793.0  wallclock:     5260.6
  
  start of program sole
  
    SCRF                   solvation energy
  iteration          Hartrees            kcal/mol
     0               0.0000000            0.0000
     1              -0.0135111           -8.4784
  
  solvation energy not yet converged... 
  
  Peak memory usage:    634 Mb
  
  end of program sole
   
 Time(sole)  user:        0.0  user+sys:        0.0  wallclock:        0.5
  
  start of program ch
  
  gridpoints used for charge fit        15979
    out of a possible maximum of        15979
  
   Electrostatic potential fitting constrained to reproduce
     total charge:                yes
     dipole moment:               no 
     traceless quadrupole moment: no 
     traceless octapole moment:   no 
  
  Atomic charges from electrostatic potential: 
   
 Atom       C1           C2           C3           C4           C5      
 Charge   -0.09811     -0.04022     -0.16851      0.18590      0.08103
   
 Atom       C6           C7           C8           C9           C10     
 Charge   -0.21080     -0.34212     -0.10357      0.00522     -0.14825
   
 Atom       C11          O12          Si13         C14          C15     
 Charge    0.11554     -0.31725      0.00922      0.10030      0.19439
   
 Atom       C16          C17          C18          C19          C20     
 Charge    0.27477     -0.16057     -0.41146     -0.27320     -0.02081
   
 Atom       Si21         O22          C23          C24          P25     
 Charge    0.22566     -0.31940     -0.17366     -0.07635      1.03799
   
 Atom       O26          O27          C28          C29          C30     
 Charge   -0.59486     -0.61951      0.06724      0.14520      0.09018
   
 Atom       C31          C32          C33          C34          C35     
 Charge   -0.00878      0.11628     -0.02445     -0.12253     -0.14158
   
 Atom       C36          C37          C38          C39          C40     
 Charge   -0.05053     -0.19449     -0.19359     -0.13070     -0.07278
   
 Atom       C41          C42          C43          C44          C45     
 Charge   -0.13808     -0.25667     -0.17117     -0.13893      0.04971
   
 Atom       C46          C47          C48          C49          C50     
 Charge   -0.14350     -0.12669     -0.12665     -0.21253     -0.08288
   
 Atom       C51          C52          C53          C54          C55     
 Charge   -0.14649     -0.08460     -0.17593     -0.09139     -0.15322
   
 Atom       C56          C57          C58          C59          C60     
 Charge   -0.12339     -0.12964     -0.04168     -0.22017     -0.05699
   
 Atom       C61          C62          C63          C64          C65     
 Charge   -0.16476     -0.13430     -0.13765     -0.09831     -0.31826
   
 Atom       C66          C67          C68          C69          C70     
 Charge    0.49243     -0.27339     -0.09937     -0.14338     -0.06095
   
 Atom       N71          S72          O73          O74          C75     
 Charge   -0.34728      0.62682     -0.42393     -0.44572      0.38921
   
 Atom       C76          C77          C78          C79          N80     
 Charge   -0.29116      0.03004     -0.19403      0.17547     -0.37399
   
 Atom       N81          C82          C83          C84          C85     
 Charge   -0.01901     -0.09257     -0.20489     -0.21027      0.11978
   
 Atom       H86          H87          H88          H89          H90     
 Charge    0.10507      0.13680      0.13535      0.15322      0.12449
   
 Atom       H91          H92          H93          H94          H95     
 Charge    0.13010      0.17962      0.14898      0.13764      0.11671
   
 Atom       H96          H97          H98          H99          H100    
 Charge    0.28716      0.11178      0.08674      0.07842      0.10798
   
 Atom       H101         H102         H103         H104         H105    
 Charge    0.12150      0.10589      0.08101      0.10617      0.14437
   
 Atom       H106         H107         H108         H109         H110    
 Charge    0.06354      0.10373      0.04327      0.12641      0.12526
   
 Atom       H111         H112         H113         H114         H115    
 Charge    0.12703      0.13088      0.11816      0.11797      0.11001
   
 Atom       H116         H117         H118         H119         H120    
 Charge    0.12537      0.11418      0.12972      0.12388      0.12171
   
 Atom       H121         H122         H123         H124         H125    
 Charge    0.11305      0.12859      0.10427      0.12760      0.12746
   
 Atom       H126         H127         H128         H129         H130    
 Charge    0.09772      0.13852      0.18879      0.12105      0.12608
   
 Atom       H131         H132         H133         H134         H135    
 Charge    0.13761      0.11577      0.16788      0.12287      0.12383
   
 Atom       H136         H137         H138         H139         H140    
 Charge    0.07482      0.24257      0.17064      0.17212      0.18269
   
 Atom       H141    
 Charge    0.07549
  
  sum of atomic charges:     0.000000
   
 RMS Error   9.06E-04 hartrees
 
  Peak memory usage:    583 Mb
  
  end of program ch
   
 Time(ch)  user:       17.0  user+sys:       17.0  wallclock:       38.8
  
  start of program post
  
  Writing input files for PBF
  Peak memory usage:    534 Mb
  
  end of program post
   
 Time(post)  user:        0.0  user+sys:        0.0  wallclock:        0.5

  start of program pbf

Pbf Version 4.00

Molecular surface area:      789.51305   [A2]
Reaction field energy:       -14.27174   [kT]
  Peak memory usage: 556 Mb

  end of program pbf

 Time(pbf)  user:       13.2  user+sys:       13.2  wallclock:       25.4
  
  start of program solv
  
   number of surface charges from PBF   12864
   sum of surface charges     -0.00023
   
  nuclear repulsion energy.......   17461.305836203 hartrees
  Peak memory usage:    694 Mb
  
  end of program solv
   
 Time(solv)  user:       35.0  user+sys:       35.0  wallclock:       76.2
  
  start of program scf
  
  
       i  u  d  i  g                   
       t  p  i  c  r                                 RMS    maximum
       e  d  i  u  i                       energy  density   DIIS  
       r  t  s  t  d       total energy    change  change    error 
  
etot    1  N  N  1  U   -4711.54547654815           7.9E-06  1.5E-04
etot    2  N  N  1  U   -4711.54544970509 -2.7E-05  0.0E+00  0.0E+00
  
  
 Energy components, in hartrees:
   (A)  Total zero-electron terms....   17463.30063779783
   (B)    Nuclear-nuclear............   17461.30583620319
   (C)    Nuclear-solvent............       1.99480159464
   (E)  Total one-electron terms.....  -41267.89947881134
   (F)    Electron-nuclear...........  -45940.38951458909
   (G)    Electron-solvent...........      -2.02558647962
   (H)    Kinetic....................    4674.51562225737
   (I)  Total two-electron terms.....   19093.05339130841
   (J)    Coulomb....................   19668.18659653174
   (K)    Exchange+Correlation.......    -575.13320522333
   (L)  Electronic energy............  -22174.84608750293  (E+I)
   (N)  Total quantum mech. energy...   -4711.54544970509  (A+L)
   (O)  Gas phase energy.............   -4711.51575368154
   (P)  Solution phase energy........   -4711.53005726260  (Q+R+S)
   (Q)    Total solute energy........   -4711.51466482012  (N-C-G)
   (R)    Total solvent energy.......      -0.01539244249  (C/2+G/2)
   (S)    Solute cavity energy.......       0.00000000000
   (U)  Reorganization energy........       0.00108886143  (Q-O)
   (V)  Solvation energy.............      -0.01430358106  (P-O)
  
 SCFE:  Solution phase energy: DFT(b3lyp)      -4711.53005726260 hartrees
        SCF iterations:   2
  
 
 HOMO energy:    -0.22223
 LUMO energy:    -0.08686
 
  Orbital energies (hartrees): 
   -59.58579   -58.90144   -58.38067   -49.54863   -36.21466   -24.72528
   -24.60475   -18.89419   -16.25175   -16.13219   -15.48586   -15.12414
   -14.90167   -14.86031   -13.87830   -13.84513   -13.25171   -13.24431
   -12.67387   -12.60446   -12.01563   -11.67452   -11.44402   -11.34017
   -11.32312   -11.29795   -11.24787   -10.72641   -10.65956   -10.57265
   -10.50873   -10.50151   -10.41928   -10.41063   -10.40370   -10.38899
   -10.37607   -10.37136   -10.35207   -10.34928   -10.30886   -10.25590
   -10.22116   -10.21309   -10.19697   -10.18829   -10.18168   -10.16222
   -10.15993   -10.15592   -10.14925   -10.14618   -10.14522   -10.13801
   -10.13042   -10.12521   -10.10240   -10.09478   -10.08734   -10.06048
   -10.05016   -10.02725    -9.98451    -9.96993    -9.95314    -9.92975
    -9.86656    -9.82978    -9.82126    -9.79288    -9.79212    -9.78820
    -9.60043    -9.55890    -9.48751    -9.41941    -9.41241    -9.39153
    -9.37803    -9.32781    -9.26138    -9.19677    -9.02812    -8.85725
    -8.79906    -8.65638    -8.57510    -8.44403    -8.12539    -8.09390
    -7.87923    -7.25532    -7.23857    -6.49788    -6.48125    -6.36624
    -6.27429    -5.17528    -4.18665    -3.81381    -3.75005    -1.08031
    -1.00549    -0.95099    -0.91943    -0.88903    -0.88453    -0.87274
    -0.86826    -0.85081    -0.84712    -0.83750    -0.83105    -0.81168
    -0.81121    -0.80665    -0.80093    -0.79456    -0.79127    -0.78177
    -0.77388    -0.77048    -0.76261    -0.75988    -0.75443    -0.75284
    -0.75158    -0.75118    -0.75071    -0.74713    -0.73126    -0.72795
    -0.72726    -0.71944    -0.71940    -0.71645    -0.71429    -0.70922
    -0.70836    -0.69445    -0.69113    -0.68756    -0.67012    -0.66444
    -0.65339    -0.65125    -0.64528    -0.63745    -0.63002    -0.61795
    -0.61778    -0.59982    -0.59535    -0.59291    -0.58930    -0.58379
    -0.58049    -0.57756    -0.57211    -0.57180    -0.57153    -0.56300
    -0.55290    -0.55048    -0.54377    -0.54039    -0.53562    -0.53298
    -0.52822    -0.52639    -0.52615    -0.52585    -0.52289    -0.52049
    -0.52039    -0.51883    -0.51770    -0.51737    -0.51687    -0.51414
    -0.51299    -0.51282    -0.51016    -0.50893    -0.50876    -0.50802
    -0.50783    -0.50757    -0.50502    -0.50085    -0.50080    -0.49765
    -0.49364    -0.49340    -0.48382    -0.48312    -0.48110    -0.47496
    -0.47445    -0.47406    -0.47403    -0.47069    -0.46849    -0.46265
    -0.46162    -0.46122    -0.45855    -0.45809    -0.45792    -0.45782
    -0.45646    -0.45621    -0.45296    -0.45184    -0.45161    -0.44955
    -0.44621    -0.44458    -0.44398    -0.44343    -0.44310    -0.44215
    -0.43685    -0.43671    -0.43636    -0.43574    -0.43345    -0.43178
    -0.42914    -0.42792    -0.42773    -0.42734    -0.42592    -0.42334
    -0.42005    -0.41623    -0.41540    -0.41467    -0.41317    -0.41196
    -0.41096    -0.40579    -0.40426    -0.40363    -0.40192    -0.40083
    -0.40067    -0.39887    -0.39873    -0.39848    -0.39644    -0.39485
    -0.39398    -0.39383    -0.39153    -0.39139    -0.39021    -0.39021
    -0.38916    -0.38555    -0.38521    -0.38182    -0.38022    -0.37889
    -0.37652    -0.37307    -0.37281    -0.37195    -0.37193    -0.37188
    -0.37175    -0.37005    -0.36849    -0.36782    -0.36628    -0.36556
    -0.36215    -0.35706    -0.35643    -0.34990    -0.34930    -0.34817
    -0.34662    -0.34092    -0.33921    -0.33367    -0.31827    -0.30201
    -0.29178    -0.28375    -0.27789    -0.26491    -0.26440    -0.25791
    -0.25770    -0.25612    -0.25541    -0.25243    -0.25110    -0.24973
    -0.24855    -0.24844    -0.24797    -0.24756    -0.24723    -0.24060
    -0.23058    -0.22223    -0.08686    -0.04891    -0.04714    -0.03121
    -0.02939    -0.01892    -0.01568    -0.01459    -0.00922    -0.00826
 
  Peak memory usage:    839 Mb
  
  end of program scf
   
 Time(scf)  user:      716.0  user+sys:      724.0  wallclock:     1459.3
  
  start of program sole
  
    SCRF                   solvation energy
  iteration          Hartrees            kcal/mol
     0               0.0000000            0.0000
     1              -0.0135111           -8.4784
     2              -0.0143036           -8.9756
  
  solvation energy not yet converged... 
  
  Peak memory usage:    634 Mb
  
  end of program sole
   
 Time(sole)  user:        0.0  user+sys:        0.0  wallclock:        0.5
  
  start of program ch
  
  gridpoints used for charge fit        15979
    out of a possible maximum of        15979
  
   Electrostatic potential fitting constrained to reproduce
     total charge:                yes
     dipole moment:               no 
     traceless quadrupole moment: no 
     traceless octapole moment:   no 
  
  Atomic charges from electrostatic potential: 
   
 Atom       C1           C2           C3           C4           C5      
 Charge   -0.09926     -0.04005     -0.16806      0.18622      0.08055
   
 Atom       C6           C7           C8           C9           C10     
 Charge   -0.21118     -0.34235     -0.10362      0.00336     -0.14797
   
 Atom       C11          O12          Si13         C14          C15     
 Charge    0.11584     -0.31691      0.00710      0.10131      0.19203
   
 Atom       C16          C17          C18          C19          C20     
 Charge    0.27567     -0.16092     -0.41260     -0.27483     -0.02218
   
 Atom       Si21         O22          C23          C24          P25     
 Charge    0.22431     -0.31834     -0.17275     -0.07434      1.03585
   
 Atom       O26          O27          C28          C29          C30     
 Charge   -0.59267     -0.61962      0.06729      0.14577      0.08968
   
 Atom       C31          C32          C33          C34          C35     
 Charge   -0.00906      0.11497     -0.02640     -0.12315     -0.14226
   
 Atom       C36          C37          C38          C39          C40     
 Charge   -0.05004     -0.19643     -0.19426     -0.13143     -0.07336
   
 Atom       C41          C42          C43          C44          C45     
 Charge   -0.13969     -0.25729     -0.17324     -0.13781      0.04872
   
 Atom       C46          C47          C48          C49          C50     
 Charge   -0.14358     -0.12676     -0.12677     -0.21207     -0.08324
   
 Atom       C51          C52          C53          C54          C55     
 Charge   -0.14692     -0.08461     -0.17541     -0.09192     -0.15301
   
 Atom       C56          C57          C58          C59          C60     
 Charge   -0.12317     -0.12910     -0.04154     -0.21933     -0.05609
   
 Atom       C61          C62          C63          C64          C65     
 Charge   -0.16375     -0.13397     -0.13860     -0.09827     -0.31915
   
 Atom       C66          C67          C68          C69          C70     
 Charge    0.48808     -0.27216     -0.09908     -0.14065     -0.06009
   
 Atom       N71          S72          O73          O74          C75     
 Charge   -0.34867      0.62048     -0.42387     -0.44355      0.38654
   
 Atom       C76          C77          C78          C79          N80     
 Charge   -0.29034      0.03207     -0.19252      0.17421     -0.37522
   
 Atom       N81          C82          C83          C84          C85     
 Charge   -0.02180     -0.08789     -0.20048     -0.21301      0.12205
   
 Atom       H86          H87          H88          H89          H90     
 Charge    0.10529      0.13736      0.13572      0.15364      0.12521
   
 Atom       H91          H92          H93          H94          H95     
 Charge    0.13048      0.18026      0.14964      0.13818      0.11727
   
 Atom       H96          H97          H98          H99          H100    
 Charge    0.28653      0.11186      0.08646      0.07866      0.10795
   
 Atom       H101         H102         H103         H104         H105    
 Charge    0.12159      0.10541      0.08089      0.10657      0.14449
   
 Atom       H106         H107         H108         H109         H110    
 Charge    0.06316      0.10396      0.04305      0.12714      0.12599
   
 Atom       H111         H112         H113         H114         H115    
 Charge    0.12761      0.13181      0.11876      0.11730      0.11075
   
 Atom       H116         H117         H118         H119         H120    
 Charge    0.12634      0.11496      0.13035      0.12456      0.12223
   
 Atom       H121         H122         H123         H124         H125    
 Charge    0.11359      0.12954      0.10493      0.12807      0.12796
   
 Atom       H126         H127         H128         H129         H130    
 Charge    0.09749      0.13894      0.18770      0.12152      0.12702
   
 Atom       H131         H132         H133         H134         H135    
 Charge    0.13803      0.11407      0.16827      0.12395      0.12486
   
 Atom       H136         H137         H138         H139         H140    
 Charge    0.07545      0.24345      0.17119      0.17243      0.18238
   
 Atom       H141    
 Charge    0.07429
  
  sum of atomic charges:     0.000000
   
 RMS Error   9.06E-04 hartrees
 
  Peak memory usage:    583 Mb
  
  end of program ch
   
 Time(ch)  user:       17.0  user+sys:       18.0  wallclock:       36.4
  
  start of program post
  
  Writing input files for PBF
  Peak memory usage:    534 Mb
  
  end of program post
   
 Time(post)  user:        0.0  user+sys:        0.0  wallclock:        0.6

  start of program pbf

Pbf Version 4.00

Molecular surface area:      789.51305   [A2]
Reaction field energy:       -14.59438   [kT]
  Peak memory usage: 556 Mb

  end of program pbf

 Time(pbf)  user:       15.1  user+sys:       15.2  wallclock:       31.6
  
  start of program solv
  
   number of surface charges from PBF   12864
   sum of surface charges     -0.00024
   
  nuclear repulsion energy.......   17461.305836203 hartrees
  Peak memory usage:    694 Mb
  
  end of program solv
   
 Time(solv)  user:       35.0  user+sys:       35.0  wallclock:       77.2
  
  start of program scf
  
  
       i  u  d  i  g                   
       t  p  i  c  r                                 RMS    maximum
       e  d  i  u  i                       energy  density   DIIS  
       r  t  s  t  d       total energy    change  change    error 
  
etot    1  N  N  1  U   -4711.54577900484           1.4E-05  2.8E-04
etot    2  N  Y  1  U   -4711.54559735196 -1.8E-04  1.0E-05  7.2E-04
etot    3  N  Y  1  U   -4711.54581181077  2.1E-04  4.3E-07  1.7E-05
etot    4  N  N  1  U   -4711.54581198395  1.7E-07  0.0E+00  0.0E+00
  
  
 Energy components, in hartrees:
   (A)  Total zero-electron terms....   17463.36505656994
   (B)    Nuclear-nuclear............   17461.30583620319
   (C)    Nuclear-solvent............       2.05922036675
   (E)  Total one-electron terms.....  -41267.64955684519
   (F)    Electron-nuclear...........  -45940.06089079860
   (G)    Electron-solvent...........      -2.09024782561
   (H)    Kinetic....................    4674.50158177902
   (I)  Total two-electron terms.....   19092.73868829130
   (J)    Coulomb....................   19667.87019287388
   (K)    Exchange+Correlation.......    -575.13150458259
   (L)  Electronic energy............  -22174.91086855390  (E+I)
   (N)  Total quantum mech. energy...   -4711.54581198395  (A+L)
   (O)  Gas phase energy.............   -4711.51575368154
   (P)  Solution phase energy........   -4711.53029825452  (Q+R+S)
   (Q)    Total solute energy........   -4711.51478452509  (N-C-G)
   (R)    Total solvent energy.......      -0.01551372943  (C/2+G/2)
   (S)    Solute cavity energy.......       0.00000000000
   (U)  Reorganization energy........       0.00096915645  (Q-O)
   (V)  Solvation energy.............      -0.01454457298  (P-O)
  
 SCFE:  Solution phase energy: DFT(b3lyp)      -4711.53029825452 hartrees
        SCF iterations:   4
  
 
 HOMO energy:    -0.20621
 LUMO energy:    -0.08769
 
  Orbital energies (hartrees): 
   -89.12188   -77.21814   -66.11234   -66.11139   -19.18107   -19.17925
   -19.15751   -19.15580   -19.09785   -19.09777   -14.38721   -14.37217
   -14.35273   -10.27952   -10.26125   -10.25435   -10.25246   -10.25035
   -10.23539   -10.22920   -10.22178   -10.21980   -10.21553   -10.21236
   -10.20565   -10.20546   -10.20495   -10.20270   -10.20171   -10.20113
   -10.20060   -10.19995   -10.19957   -10.19952   -10.19924   -10.19861
   -10.19769   -10.19444   -10.19303   -10.19289   -10.19179   -10.19135
   -10.19060   -10.19047   -10.19005   -10.18997   -10.18963   -10.18912
   -10.18822   -10.18786   -10.18764   -10.18750   -10.18715   -10.18644
   -10.18582   -10.18580   -10.18567   -10.18554   -10.18451   -10.18440
   -10.18437   -10.18405   -10.18320   -10.18208   -10.18182   -10.18094
   -10.18026   -10.17974   -10.17959   -10.17934   -10.17891   -10.17862
   -10.17848   -10.17808   -10.17772   -10.17714   -10.17621   -10.17556
   -10.17351   -10.17295   -10.16972   -10.16782   -10.16686   -10.16591
   -10.16336    -8.14789    -6.66273    -6.11294    -6.11188    -6.11074
    -5.25924    -5.25794    -4.82777    -4.82623    -4.82410    -3.61823
    -3.61780    -3.61762    -3.61689    -3.61659    -3.61630    -1.12068
    -1.09179    -1.04944    -1.01110    -0.99589    -0.97319    -0.96695
    -0.94656    -0.92593    -0.87470    -0.86577    -0.86189    -0.84248
    -0.84018    -0.83671    -0.83457    -0.83357    -0.83123    -0.81913
    -0.81828    -0.80935    -0.79786    -0.79178    -0.79009    -0.77655
    -0.75654    -0.75484    -0.74807    -0.74678    -0.74327    -0.74139
    -0.73947    -0.73622    -0.73522    -0.73437    -0.73350    -0.73295
    -0.73225    -0.73063    -0.73031    -0.72875    -0.72749    -0.72664
    -0.71609    -0.70731    -0.66025    -0.64849    -0.64752    -0.62573
    -0.62201    -0.61721    -0.61645    -0.61267    -0.60544    -0.59996
    -0.59637    -0.59471    -0.59446    -0.59012    -0.58948    -0.58886
    -0.58728    -0.58594    -0.58284    -0.58232    -0.57948    -0.57899
    -0.57822    -0.57573    -0.57386    -0.56798    -0.56294    -0.56034
    -0.54241    -0.53114    -0.52888    -0.52557    -0.52115    -0.52046
    -0.50685    -0.50534    -0.50300    -0.50257    -0.50171    -0.50084
    -0.49753    -0.49577    -0.48745    -0.48612    -0.47610    -0.47098
    -0.46750    -0.46607    -0.46481    -0.46426    -0.45819    -0.45636
    -0.45384    -0.45147    -0.44827    -0.44630    -0.44551    -0.44436
    -0.44196    -0.43977    -0.43786    -0.43733    -0.43671    -0.43601
    -0.43326    -0.43281    -0.43064    -0.43005    -0.42950    -0.42862
    -0.42707    -0.42644    -0.42551    -0.42416    -0.42278    -0.41900
    -0.41806    -0.41707    -0.41581    -0.41555    -0.41339    -0.41213
    -0.41085    -0.40869    -0.40619    -0.40426    -0.40352    -0.40026
    -0.39461    -0.39252    -0.38899    -0.38662    -0.38628    -0.38308
    -0.38081    -0.37900    -0.37668    -0.37213    -0.36880    -0.36439
    -0.36280    -0.36185    -0.35829    -0.35686    -0.35500    -0.35446
    -0.35141    -0.35033    -0.34937    -0.34742    -0.34494    -0.34283
    -0.33941    -0.33931    -0.33533    -0.33447    -0.33206    -0.33002
    -0.32889    -0.32858    -0.32660    -0.32482    -0.32318    -0.32007
    -0.31728    -0.31443    -0.31331    -0.31007    -0.30330    -0.30093
    -0.29672    -0.29398    -0.28968    -0.28811    -0.28544    -0.28512
    -0.28273    -0.27977    -0.27568    -0.27332    -0.27259    -0.26772
    -0.26265    -0.26100    -0.25866    -0.25431    -0.24982    -0.24960
    -0.24788    -0.24404    -0.24358    -0.24210    -0.24068    -0.23804
    -0.23767    -0.23681    -0.23420    -0.23340    -0.23196    -0.22896
    -0.22129    -0.20621    -0.08769    -0.04953    -0.04790    -0.03184
    -0.02977    -0.01938    -0.01606    -0.01514    -0.00970    -0.00859
 
  Peak memory usage:    839 Mb
  
  end of program scf
   
 Time(scf)  user:     2066.0  user+sys:     2089.0  wallclock:     4032.7
  
  start of program sole
  
    SCRF                   solvation energy
  iteration          Hartrees            kcal/mol
     0               0.0000000            0.0000
     1              -0.0135111           -8.4784
     2              -0.0143036           -8.9756
     3              -0.0145446           -9.1269
  
  solvation energy not yet converged... 
  
  Peak memory usage:    634 Mb
  
  end of program sole
   
 Time(sole)  user:        0.0  user+sys:        0.0  wallclock:        0.6
  
  start of program ch
  
  gridpoints used for charge fit        15979
    out of a possible maximum of        15979
  
   Electrostatic potential fitting constrained to reproduce
     total charge:                yes
     dipole moment:               no 
     traceless quadrupole moment: no 
     traceless octapole moment:   no 
  
  Atomic charges from electrostatic potential: 
   
 Atom       C1           C2           C3           C4           C5      
 Charge   -0.09863     -0.04006     -0.16860      0.18588      0.08042
   
 Atom       C6           C7           C8           C9           C10     
 Charge   -0.21119     -0.34301     -0.10386      0.00453     -0.14785
   
 Atom       C11          O12          Si13         C14          C15     
 Charge    0.11644     -0.31690      0.00747      0.10079      0.19313
   
 Atom       C16          C17          C18          C19          C20     
 Charge    0.27506     -0.16078     -0.41215     -0.27429     -0.02083
   
 Atom       Si21         O22          C23          C24          P25     
 Charge    0.22454     -0.31869     -0.17367     -0.07550      1.03635
   
 Atom       O26          O27          C28          C29          C30     
 Charge   -0.59367     -0.61880      0.06730      0.14665      0.09110
   
 Atom       C31          C32          C33          C34          C35     
 Charge   -0.00837      0.11639     -0.02506     -0.12287     -0.14164
   
 Atom       C36          C37          C38          C39          C40     
 Charge   -0.05043     -0.19628     -0.19436     -0.13122     -0.07327
   
 Atom       C41          C42          C43          C44          C45     
 Charge   -0.13886     -0.25726     -0.17189     -0.13866      0.05030
   
 Atom       C46          C47          C48          C49          C50     
 Charge   -0.14375     -0.12699     -0.12709     -0.21282     -0.08320
   
 Atom       C51          C52          C53          C54          C55     
 Charge   -0.14695     -0.08488     -0.17615     -0.09205     -0.15337
   
 Atom       C56          C57          C58          C59          C60     
 Charge   -0.12362     -0.12975     -0.04184     -0.22031     -0.05715
   
 Atom       C61          C62          C63          C64          C65     
 Charge   -0.16477     -0.13440     -0.13887     -0.09851     -0.31911
   
 Atom       C66          C67          C68          C69          C70     
 Charge    0.49156     -0.27382     -0.09939     -0.14244     -0.05938
   
 Atom       N71          S72          O73          O74          C75     
 Charge   -0.34472      0.62339     -0.42505     -0.44585      0.38749
   
 Atom       C76          C77          C78          C79          N80     
 Charge   -0.29052      0.03041     -0.19318      0.17411     -0.37381
   
 Atom       N81          C82          C83          C84          C85     
 Charge   -0.02093     -0.09142     -0.20274     -0.21226      0.12167
   
 Atom       H86          H87          H88          H89          H90     
 Charge    0.10511      0.13736      0.13567      0.15352      0.12517
   
 Atom       H91          H92          H93          H94          H95     
 Charge    0.13029      0.17987      0.14955      0.13836      0.11744
   
 Atom       H96          H97          H98          H99          H100    
 Charge    0.28589      0.11173      0.08621      0.07842      0.10840
   
 Atom       H101         H102         H103         H104         H105    
 Charge    0.12145      0.10552      0.08074      0.10631      0.14436
   
 Atom       H106         H107         H108         H109         H110    
 Charge    0.06282      0.10379      0.04303      0.12706      0.12593
   
 Atom       H111         H112         H113         H114         H115    
 Charge    0.12757      0.13169      0.11857      0.11753      0.11074
   
 Atom       H116         H117         H118         H119         H120    
 Charge    0.12629      0.11477      0.13032      0.12456      0.12222
   
 Atom       H121         H122         H123         H124         H125    
 Charge    0.11356      0.12953      0.10494      0.12814      0.12793
   
 Atom       H126         H127         H128         H129         H130    
 Charge    0.09738      0.13892      0.18789      0.12158      0.12689
   
 Atom       H131         H132         H133         H134         H135    
 Charge    0.13831      0.11422      0.16810      0.12402      0.12455
   
 Atom       H136         H137         H138         H139         H140    
 Charge    0.07526      0.24323      0.17168      0.17293      0.18244
   
 Atom       H141    
 Charge    0.07501
  
  sum of atomic charges:     0.000000
   
 RMS Error   9.06E-04 hartrees
 
  Peak memory usage:    583 Mb
  
  end of program ch
   
 Time(ch)  user:       18.0  user+sys:       19.0  wallclock:       39.8
  
  start of program post
  
  Writing input files for PBF
  Peak memory usage:    534 Mb
  
  end of program post
   
 Time(post)  user:        0.0  user+sys:        0.0  wallclock:        0.5

  start of program pbf

Pbf Version 4.00

Molecular surface area:      789.51305   [A2]
Reaction field energy:       -14.50852   [kT]
  Peak memory usage: 556 Mb

  end of program pbf

 Time(pbf)  user:       13.4  user+sys:       13.4  wallclock:       20.0
  
  start of program solv
  
   number of surface charges from PBF   12864
   sum of surface charges     -0.00023
   
  nuclear repulsion energy.......   17461.305836203 hartrees
  Peak memory usage:    694 Mb
  
  end of program solv
   
 Time(solv)  user:       35.0  user+sys:       35.0  wallclock:       69.4
  
  start of program scf
  
  
       i  u  d  i  g                   
       t  p  i  c  r                                 RMS    maximum
       e  d  i  u  i                       energy  density   DIIS  
       r  t  s  t  d       total energy    change  change    error 
  
etot    1  N  N  1  U   -4711.54572875298           8.7E-07  1.8E-05
etot    2  N  N  1  U   -4711.54572867401 -7.9E-08  0.0E+00  0.0E+00
  
  
 Energy components, in hartrees:
   (A)  Total zero-electron terms....   17463.34056904067
   (B)    Nuclear-nuclear............   17461.30583620319
   (C)    Nuclear-solvent............       2.03473283747
   (E)  Total one-electron terms.....  -41267.59011566895
   (F)    Electron-nuclear...........  -45940.02500735929
   (G)    Electron-solvent...........      -2.06565026673
   (H)    Kinetic....................    4674.50054195707
   (I)  Total two-electron terms.....   19092.70381795427
   (J)    Coulomb....................   19667.83517784224
   (K)    Exchange+Correlation.......    -575.13135988796
   (L)  Electronic energy............  -22174.88629771468  (E+I)
   (N)  Total quantum mech. energy...   -4711.54572867401  (A+L)
   (O)  Gas phase energy.............   -4711.51575368154
   (P)  Solution phase energy........   -4711.53026995938  (Q+R+S)
   (Q)    Total solute energy........   -4711.51481124475  (N-C-G)
   (R)    Total solvent energy.......      -0.01545871463  (C/2+G/2)
   (S)    Solute cavity energy.......       0.00000000000
   (U)  Reorganization energy........       0.00094243679  (Q-O)
   (V)  Solvation energy.............      -0.01451627784  (P-O)
  
 SCFE:  Solution phase energy: DFT(b3lyp)      -4711.53026995938 hartrees
        SCF iterations:   2
  
 
 HOMO energy:    -0.20623
 LUMO energy:    -0.08773
 
  Orbital energies (hartrees): 
   -89.12215   -77.21813   -66.11227   -66.11150   -19.18112   -19.17906
   -19.15789   -19.15554   -19.09802   -19.09775   -14.38708   -14.37221
   -14.35289   -10.27954   -10.26148   -10.25428   -10.25256   -10.25024
   -10.23546   -10.22933   -10.22163   -10.21977   -10.21563   -10.21226
   -10.20569   -10.20544   -10.20520   -10.20260   -10.20158   -10.20114
   -10.20061   -10.20003   -10.19948   -10.19944   -10.19939   -10.19878
   -10.19781   -10.19465   -10.19307   -10.19302   -10.19162   -10.19117
   -10.19053   -10.19052   -10.19011   -10.18995   -10.18958   -10.18907
   -10.18816   -10.18787   -10.18770   -10.18748   -10.18711   -10.18639
   -10.18578   -10.18578   -10.18567   -10.18551   -10.18446   -10.18444
   -10.18431   -10.18406   -10.18319   -10.18204   -10.18185   -10.18084
   -10.18016   -10.17973   -10.17962   -10.17938   -10.17890   -10.17857
   -10.17849   -10.17800   -10.17771   -10.17727   -10.17640   -10.17577
   -10.17370   -10.17294   -10.16982   -10.16768   -10.16679   -10.16605
   -10.16349    -8.14813    -6.66272    -6.11318    -6.11212    -6.11098
    -5.25917    -5.25806    -4.82776    -4.82622    -4.82408    -3.61816
    -3.61773    -3.61755    -3.61701    -3.61671    -3.61642    -1.12080
    -1.09179    -1.04940    -1.01120    -0.99586    -0.97323    -0.96705
    -0.94662    -0.92597    -0.87472    -0.86580    -0.86192    -0.84247
    -0.84020    -0.83667    -0.83453    -0.83362    -0.83125    -0.81910
    -0.81826    -0.80936    -0.79792    -0.79182    -0.79013    -0.77657
    -0.75654    -0.75487    -0.74805    -0.74681    -0.74329    -0.74137
    -0.73949    -0.73619    -0.73521    -0.73437    -0.73351    -0.73297
    -0.73224    -0.73067    -0.73029    -0.72874    -0.72754    -0.72666
    -0.71614    -0.70733    -0.66028    -0.64850    -0.64755    -0.62577
    -0.62204    -0.61719    -0.61646    -0.61267    -0.60545    -0.59996
    -0.59636    -0.59470    -0.59446    -0.59011    -0.58952    -0.58886
    -0.58732    -0.58591    -0.58288    -0.58230    -0.57951    -0.57898
    -0.57821    -0.57576    -0.57390    -0.56801    -0.56298    -0.56037
    -0.54241    -0.53114    -0.52891    -0.52559    -0.52116    -0.52047
    -0.50683    -0.50535    -0.50302    -0.50257    -0.50170    -0.50087
    -0.49755    -0.49580    -0.48746    -0.48615    -0.47613    -0.47098
    -0.46751    -0.46611    -0.46482    -0.46428    -0.45822    -0.45638
    -0.45386    -0.45148    -0.44825    -0.44632    -0.44551    -0.44433
    -0.44198    -0.43979    -0.43786    -0.43733    -0.43672    -0.43602
    -0.43328    -0.43277    -0.43067    -0.43004    -0.42951    -0.42862
    -0.42706    -0.42645    -0.42553    -0.42416    -0.42277    -0.41899
    -0.41806    -0.41708    -0.41584    -0.41558    -0.41337    -0.41213
    -0.41087    -0.40871    -0.40624    -0.40429    -0.40354    -0.40032
    -0.39462    -0.39251    -0.38899    -0.38659    -0.38630    -0.38310
    -0.38081    -0.37903    -0.37670    -0.37214    -0.36882    -0.36442
    -0.36279    -0.36186    -0.35828    -0.35686    -0.35500    -0.35447
    -0.35143    -0.35034    -0.34938    -0.34742    -0.34495    -0.34286
    -0.33940    -0.33931    -0.33530    -0.33449    -0.33203    -0.33000
    -0.32888    -0.32861    -0.32663    -0.32486    -0.32327    -0.32009
    -0.31728    -0.31448    -0.31335    -0.31009    -0.30334    -0.30093
    -0.29671    -0.29402    -0.28968    -0.28809    -0.28548    -0.28516
    -0.28274    -0.27981    -0.27573    -0.27335    -0.27264    -0.26775
    -0.26268    -0.26101    -0.25869    -0.25429    -0.24985    -0.24958
    -0.24790    -0.24409    -0.24356    -0.24207    -0.24071    -0.23802
    -0.23770    -0.23680    -0.23420    -0.23344    -0.23198    -0.22899
    -0.22129    -0.20623    -0.08773    -0.04956    -0.04793    -0.03185
    -0.02977    -0.01938    -0.01607    -0.01516    -0.00973    -0.00861
 
  Peak memory usage:    839 Mb
  
  end of program scf
   
 Time(scf)  user:      713.0  user+sys:      722.0  wallclock:     1403.3
  
  start of program sole
  
    SCRF                   solvation energy
  iteration          Hartrees            kcal/mol
     0               0.0000000            0.0000
     1              -0.0135111           -8.4784
     2              -0.0143036           -8.9756
     3              -0.0145446           -9.1269
     4              -0.0145163           -9.1091
  
  stopping: solvation energy converged
  
  iterations:   4    sfinal:     -9.1091 kcal/mol
  
  Peak memory usage:    634 Mb
  
  end of program sole
   
 Time(sole)  user:        0.0  user+sys:        0.0  wallclock:        0.4
  
  start of program post
  
  Writing input files for PBF
  Peak memory usage:    534 Mb
  
  end of program post
   
 Time(post)  user:        0.0  user+sys:        0.0  wallclock:        0.5

 Total cpu seconds     user:   18384.000   user+sys:   18596.000
  
 Total elapsed time:    35979 seconds

Job B3LYP-SPE-Toru-SiPh3-Type-I-Z-1-chkp-unrestrained.mol completed on tethys at Fri Nov 25 01:05:27 2016
