[running at reduced cpu priority]
Job B3LYP-SPE-Toru-SiPh3-Type-I-Z-1-chkp-unrestrained.mol started on tethys at Thu Nov 24 15:05:48 2016
jobid: tethys-0-583701cb 
Jaguar version 8.4, release  16
Molecular Point Group: C1      
Point Group used: C1
pre (input checking) done.
onee (1-electron integrals) done.
hfig (HF initial guess) done.
probe (project orbitals) done.
grid (grid generation) done.
rwr (Q operators) done.
scf type: DFT=Becke_3_Parameter/HF+Slater+Becke88+VWN+LYP (B3LYP)
  
       i  u  d  i  g
       t  p  i  c  r                                 RMS    maximum
       e  d  i  u  i                       energy  density   DIIS  
       r  t  s  t  d       total energy    change  change    error 
  
etot    1  N  N  1  U   -4700.90805431626           3.0E-03  1.2E-01
etot    2  N  Y  1  U   -4698.73039815811 -2.2E+00  4.4E-03  1.3E-01
etot    3  N  Y  1  U   -4672.41587926577 -2.6E+01  4.3E-03  1.5E-01
etot    4  N  Y  1  U   -4704.45125129320  3.2E+01  2.6E-03  8.7E-02
etot    5  N  Y  1  U   -4694.60618019353 -9.8E+00  2.3E-03  1.0E-01
etot    6  N  Y  1  U   -4706.09475449715  1.1E+01  1.6E-03  4.4E-02
etot    7  N  Y  1  U   -4709.44544408501  3.4E+00  1.0E-03  3.8E-02
etot    8  N  Y  1  U   -4711.36838587126  1.9E+00  3.7E-04  1.2E-02
etot    9  N  Y  1  U   -4711.45708232034  8.9E-02  1.9E-04  7.6E-03
etot   10  N  Y  1  U   -4711.50334437023  4.6E-02  7.0E-05  3.1E-03
etot   11  N  Y  1  U   -4711.51174466262  8.4E-03  3.7E-05  1.8E-03
etot   12  N  Y  1  U   -4711.51397466998  2.2E-03  2.9E-05  1.2E-03
etot   13  N  Y  1  U   -4711.51512756431  1.2E-03  1.7E-05  6.7E-04
etot   14  N  Y  1  U   -4711.51551992291  3.9E-04  8.6E-06  3.7E-04
etot   15  N  Y  1  U   -4711.51565807685  1.4E-04  8.0E-06  2.5E-04
etot   16  N  Y  1  U   -4711.51573765180  8.0E-05  4.1E-06  1.5E-04
etot   17  N  N  1  U   -4711.51575368154  1.6E-05  0.0E+00  0.0E+00
scf (DFT) done.
--------gas phase calculation complete----------------------
ch (properties) done.
post (output conversion) done.
pbf (Poisson-Boltzmann solver) done.
solv (solvation checking) done.
  
       i  u  d  i  g
       t  p  i  c  r                                 RMS    maximum
       e  d  i  u  i                       energy  density   DIIS  
       r  t  s  t  d       total energy    change  change    error 
  
etot    1  N  N  1  U   -4711.54277876802           5.6E-05  7.9E-04
etot    2  N  Y  1  U   -4711.54301371260  2.3E-04  2.4E-05  1.4E-03
etot    3  N  Y  1  U   -4711.54342661516  4.1E-04  8.6E-06  6.7E-04
etot    4  N  Y  1  U   -4711.54352519551  9.9E-05  3.7E-06  1.7E-04
etot    5  N  N  1  U   -4711.54353981421  1.5E-05  0.0E+00  0.0E+00
scf (DFT) done.
sole (solvation energy) done.
----------solvation iteration  1 complete------------------
ch (properties) done.
post (output conversion) done.
pbf (Poisson-Boltzmann solver) done.
solv (solvation checking) done.
  
       i  u  d  i  g
       t  p  i  c  r                                 RMS    maximum
       e  d  i  u  i                       energy  density   DIIS  
       r  t  s  t  d       total energy    change  change    error 
  
etot    1  N  N  1  U   -4711.54547654815           7.9E-06  1.5E-04
etot    2  N  N  1  U   -4711.54544970509 -2.7E-05  0.0E+00  0.0E+00
scf (DFT) done.
sole (solvation energy) done.
----------solvation iteration  2 complete------------------
ch (properties) done.
post (output conversion) done.
pbf (Poisson-Boltzmann solver) done.
solv (solvation checking) done.
  
       i  u  d  i  g
       t  p  i  c  r                                 RMS    maximum
       e  d  i  u  i                       energy  density   DIIS  
       r  t  s  t  d       total energy    change  change    error 
  
etot    1  N  N  1  U   -4711.54577900484           1.4E-05  2.8E-04
etot    2  N  Y  1  U   -4711.54559735196 -1.8E-04  1.0E-05  7.2E-04
etot    3  N  Y  1  U   -4711.54581181077  2.1E-04  4.3E-07  1.7E-05
etot    4  N  N  1  U   -4711.54581198395  1.7E-07  0.0E+00  0.0E+00
scf (DFT) done.
sole (solvation energy) done.
----------solvation iteration  3 complete------------------
ch (properties) done.
post (output conversion) done.
pbf (Poisson-Boltzmann solver) done.
solv (solvation checking) done.
  
       i  u  d  i  g
       t  p  i  c  r                                 RMS    maximum
       e  d  i  u  i                       energy  density   DIIS  
       r  t  s  t  d       total energy    change  change    error 
  
etot    1  N  N  1  U   -4711.54572875298           8.7E-07  1.8E-05
etot    2  N  N  1  U   -4711.54572867401 -7.9E-08  0.0E+00  0.0E+00
scf (DFT) done.
sole (solvation energy) done.
----final solvation iteration  4 complete------------------
post (output conversion) done.
Job B3LYP-SPE-Toru-SiPh3-Type-I-Z-1-chkp-unrestrained.mol completed on tethys at Fri Nov 25 01:05:27 2016
