Job Type-II-Z-sulfonyl-bind-1-scan-unrestrained-SPE started on tethys at Tue Mar 14 16:33:40 2017
jobid: tethys-0-58c81b61

  +--------------------------------------------------------------------+
  |  Jaguar version 9.5, release  11                                   |
  |                                                                    |
  |  Copyright Schrodinger, Inc.                                       |
  |  All Rights Reserved.                                              |
  |                                                                    |
  |  The following have contributed to Jaguar (listed alphabetically): |
  |  Mike Beachy, Art Bochevarov, Dale Braden, Yixiang Cao,            |
  |  Chris Cortis, Rich Friesner, Bill Goddard, Hod Greeley,           |
  |  Tom Hughes, Leif Jacobson, Jean-Marc Langlois,                    |
  |  Daniel Mainz, Rob Murphy, Dean Philipp, Tom Pollard,              |
  |  Murco Ringnalda, Mark Watson, Haoyu Yu.                           |
  |                                                                    |
  |  Use of this program should be acknowledged in publications as:    |
  |                                                                    |
  |  Jaguar, version 9.5, Schrodinger, Inc., New York, NY, 2017.       |
  |                                                                    |
  |  A. D. Bochevarov, E. Harder, T. F. Hughes, J. R. Greenwood,       |
  |  D. A. Braden, D. M. Philipp, D. Rinaldo, M. D. Halls,             |
  |  J. Zhang, R. A. Friesner, "Jaguar: A High-Performance Quantum     |
  |  Chemistry Software Program with Strengths in Life and Materials   |
  |  Sciences", Int. J. Quantum Chem., 2013, 113(18), 2110-2142.       |
  +--------------------------------------------------------------------+
  
  start of program pre
  
  Job name: Type-II-Z-sulfonyl-bind-1-scan-unrestrained-SPE
  Executables used: /usr/local/shared/schrodinger/current/jaguar-v9.5/bin/Linux-x86_64
  Temporary files : /scratch/ab2144/Type-II-Z-sulfonyl-bind-1-scan-unrestrained-SPE
  Maestro file (input):  Type-II-Z-sulfonyl-bind-1-scan-unrestrained-SPE.mae
  Maestro file (output): Type-II-Z-sulfonyl-bind-1-scan-unrestrained-SPE.01.mae
  
  basis set:             6-31g**                         
  net molecular charge:    0
  multiplicity:            1
  
  keygrid settings 
    wispc.....   7.500E-01
    ldens.....   0
    denspc....   7.500E-01
  
   grid     daf set  nls  grid set  Q type
  ------    -------  ---  --------  ------
  coarse       1      1       1        1
  medium       2      2       2        1
  fine         3      2       3        0
  ultrafine    4      2       4        1
  charge       0      1      -1        1
  gradient     5      2       4        1
  density      0      1       0        0
  DFT-fine     0      1     -13        0
  DFT-med.     0      1     -13        0
  DFT-grad     0      1     -13        0
  DFT-der2     0      1       0        0
  DFT-cphf     0      1       0        0
  LMP2-enrg    4      2       4        1
  LMP2-grad    5      2       2        1
  DFT-cphf2    0      1       0        0
  PBF-dens     0      1       0        0
  plotting     0      1       0        0
  Rel-grad     0      1     -17        0
  
  idftgrdm  100
  ndftgrdm   50    0    0
  idftgrdf  111
  ndftgrdf   85    0    0
  idftgrdg  111
  ndftgrdg   80    3    0
  idftgrdu  433
  ndftgrdu  105    0    0
  idftgrdd  433
  ndftgrdd  105    0    0
  idftgrdc  433
  ndftgrdc   26    0    0
  idftgrdp  433
  ndftgrdp   18    0    0
  
  number of basis functions....         1680
  
 Input geometry:
                                   angstroms
  atom               x                 y                 z
  C1           -3.1434000000      1.7166000000     -0.8354000000 
  C2           -5.4414000000      0.0925000000     -0.4852000000 
  C3           -4.1006000000     -0.5266000000     -0.4369000000 
  C4           -2.9996000000      0.2382000000     -0.6099000000 
  H5           -6.3250000000     -0.5231000000     -0.3962000000 
  C6            0.2258000000      4.3927000000     -1.1227000000 
  C7            0.1007000000      3.5711000000     -0.0711000000 
  C8           -0.9732000000      2.5433000000     -0.0704000000 
  C9           -1.9263000000      2.5549000000     -1.0231000000 
  H10           1.0069000000      5.1433000000     -1.1419000000 
  C11          -4.3775000000      2.2788000000     -0.7711000000 
  C12          -5.5753000000      1.4139000000     -0.6306000000 
  C13          -6.9131000000      2.0395000000     -0.6521000000 
  C14          -7.0361000000      3.3676000000     -0.7369000000 
  C15          -5.8504000000      4.2466000000     -0.7979000000 
  C16          -4.6084000000      3.7487000000     -0.8066000000 
  H17          -7.8048000000      1.4265000000     -0.5932000000 
  H18          -8.0226000000      3.8131000000     -0.7464000000 
  H19          -5.9947000000      5.3192000000     -0.8252000000 
  H20          -3.7810000000      4.4451000000     -0.8191000000 
  C21          -0.7097000000      4.2981000000     -2.2624000000 
  C22          -1.7450000000      3.4272000000     -2.2219000000 
  C23          -2.6393000000      3.3114000000     -3.4050000000 
  C24          -2.4443000000      4.0867000000     -4.4778000000 
  C25          -1.3336000000      5.0578000000     -4.4997000000 
  C26          -0.5089000000      5.1574000000     -3.4516000000 
  H27          -3.4470000000      2.5915000000     -3.4172000000 
  H28          -3.0965000000      3.9980000000     -5.3370000000 
  H29          -1.1842000000      5.6840000000     -5.3697000000 
  H30           0.3090000000      5.8667000000     -3.4782000000 
  Si31         -3.9649000000     -2.3546000000     -0.0569000000 
  Si32          1.2147000000      3.7927000000      1.4102000000 
  C33          -8.1343000000     -4.4920000000     -0.1480000000 
  C34          -7.8618000000     -3.5882000000      0.8001000000 
  C35          -6.5476000000     -2.9135000000      0.8234000000 
  C36          -5.6255000000     -3.1917000000     -0.1142000000 
  C37          -5.9286000000     -4.2061000000     -1.1537000000 
  C38          -7.1193000000     -4.8184000000     -1.1697000000 
  H39          -9.0961000000     -4.9881000000     -0.1662000000 
  H40          -8.6022000000     -3.3499000000      1.5526000000 
  H41          -6.3430000000     -2.1923000000      1.6053000000 
  H42          -5.1945000000     -4.4648000000     -1.9035000000 
  H43          -7.3396000000     -5.5578000000     -1.9289000000 
  C44          -1.1104000000     -4.2552000000     -3.2535000000 
  C45          -2.1315000000     -3.4798000000     -3.6363000000 
  C46          -3.0278000000     -2.8825000000     -2.6245000000 
  C47          -2.8227000000     -3.1134000000     -1.3167000000 
  C48          -1.6769000000     -3.9577000000     -0.8991000000 
  C49          -0.8715000000     -4.5046000000     -1.8177000000 
  H50          -0.4530000000     -4.6935000000     -3.9931000000 
  H51          -2.3052000000     -3.2900000000     -4.6875000000 
  H52          -3.8517000000     -2.2618000000     -2.9547000000 
  H53          -1.4807000000     -4.1433000000      0.1446000000 
  H54          -0.0358000000     -5.1199000000     -1.5097000000 
  C55          -2.4369000000     -2.9246000000      4.3379000000 
  C56          -2.6999000000     -3.9921000000      3.5754000000 
  C57          -3.1853000000     -3.8128000000      2.1912000000 
  C58          -3.3450000000     -2.5790000000      1.6841000000 
  C59          -3.0984000000     -1.4001000000      2.5519000000 
  C60          -2.6551000000     -1.5658000000      3.8041000000 
  H61          -2.0755000000     -3.0543000000      5.3497000000 
  H62          -2.5524000000     -4.9896000000      3.9685000000 
  H63          -3.4014000000     -4.6898000000      1.5937000000 
  H64          -3.2656000000     -0.3978000000      2.1818000000 
  H65          -2.4634000000     -0.7046000000      4.4307000000 
  C66           5.3322000000      1.7024000000      0.5820000000 
  C67           5.0552000000      2.1677000000      1.8052000000 
  C68           3.7649000000      2.8385000000      2.0673000000 
  C69           2.8519000000      2.9609000000      1.0880000000 
  C70           3.1731000000      2.4563000000     -0.2683000000 
  C71           4.3497000000      1.8658000000     -0.5073000000 
  H72           6.2757000000      1.2091000000      0.3883000000 
  H73           5.7738000000      2.0518000000      2.6060000000 
  H74           3.5664000000      3.2208000000      3.0608000000 
  H75           2.4683000000      2.5722000000     -1.0790000000 
  H76           4.5821000000      1.5096000000     -1.5012000000 
  C77          -1.0295000000      1.9246000000      5.0872000000 
  C78          -1.5473000000      2.9776000000      4.4465000000 
  C79          -0.8262000000      3.5784000000      3.3055000000 
  C80           0.3588000000      3.0811000000      2.9096000000 
  C81           0.9228000000      1.9092000000      3.6244000000 
  C82           0.2640000000      1.3630000000      4.6539000000 
  H83          -1.5591000000      1.4791000000      5.9193000000 
  H84          -2.4999000000      3.3873000000      4.7565000000 
  H85          -1.2881000000      4.4024000000      2.7823000000 
  H86           1.8564000000      1.4701000000      3.3114000000 
  H87           0.6743000000      0.5040000000      5.1682000000 
  C88           1.7736000000      8.4094000000      2.0364000000 
  C89           2.8387000000      7.6017000000      2.0867000000 
  C90           2.6760000000      6.1460000000      1.8898000000 
  C91           1.4564000000      5.6226000000      1.6736000000 
  C92           0.2829000000      6.5285000000      1.6003000000 
  C93           0.4343000000      7.8469000000      1.7749000000 
  H94           1.8920000000      9.4757000000      2.1792000000 
  H95           3.8229000000      8.0124000000      2.2716000000 
  H96           3.5573000000      5.5238000000      1.9265000000 
  H97          -0.6996000000      6.1352000000      1.3769000000 
  H98          -0.4226000000      8.5051000000      1.7125000000 
  O99          -1.7722000000     -0.3729000000     -0.7135000000 
  O100         -0.9804000000      1.5643000000      0.8903000000 
  P101         -0.5794000000      0.0951000000      0.2948000000 
  O102         -0.4217000000     -0.8396000000      1.4559000000 
  N103          3.6633000000     -2.5539000000     -0.5131000000 
  H104          3.4626000000     -1.7940000000     -1.1912000000 
  C105          2.7361000000     -2.6735000000      0.4875000000 
  C106          1.7531000000     -6.1099000000      2.8262000000 
  C107          3.0957000000     -5.8803000000      2.5154000000 
  C108          3.4714000000     -4.7570000000      1.7845000000 
  C109          2.4937000000     -3.8514000000      1.3346000000 
  C110          1.1478000000     -4.0669000000      1.6941000000 
  C111          0.7804000000     -5.1949000000      2.4227000000 
  H112          1.4692000000     -6.9935000000      3.3902000000 
  H113          3.8578000000     -6.5793000000      2.8454000000 
  H114          4.5201000000     -4.5860000000      1.5803000000 
  H115          0.3945000000     -3.3447000000      1.3937000000 
  H116         -0.2633000000     -5.3594000000      2.6683000000 
  H117          1.8111000000     -2.2061000000      0.1664000000 
  N118          0.7499000000      0.3374000000     -0.6200000000 
  S119          1.1934000000     -0.4661000000     -1.9006000000 
  O120          0.5745000000     -1.7864000000     -2.0824000000 
  O121          2.6764000000     -0.4167000000     -2.0259000000 
  C122          0.6227000000      0.5518000000     -3.3589000000 
  F123         -0.7143000000      0.6323000000     -3.3678000000 
  F124          1.1251000000      1.7906000000     -3.3009000000 
  F125          1.0274000000     -0.0255000000     -4.4943000000 
  C126          3.0306000000     -1.0403000000      1.8039000000 
  C127          4.1905000000     -1.3796000000      2.5567000000 
  C128          3.7708000000     -1.7951000000      3.8134000000 
  C129          2.3694000000     -1.6463000000      3.8459000000 
  N130          1.9503000000     -1.1436000000      2.6799000000 
  H131          2.9610000000     -0.3304000000      0.9900000000 
  H132          5.1974000000     -1.3758000000      2.1661000000 
  H133          4.3809000000     -2.1787000000      4.6182000000 
  H134          1.6700000000     -1.8899000000      4.6340000000 
  H135          0.9709000000     -0.9760000000      2.3691000000 
  S136          5.2027000000     -3.2787000000     -0.6793000000 
  O137          5.9763000000     -3.0550000000      0.5462000000 
  O138          5.0504000000     -4.6412000000     -1.1919000000 
  C139          6.8649000000     -0.6672000000     -3.9501000000 
  C140          6.6570000000     -0.2207000000     -2.6421000000 
  N141          6.1505000000     -0.9991000000     -1.6809000000 
  C142          5.8431000000     -2.2420000000     -2.0240000000 
  C143          6.0004000000     -2.8077000000     -3.2856000000 
  C144          6.5314000000     -1.9798000000     -4.2765000000 
  H145          7.2783000000      0.0068000000     -4.6929000000 
  H146          6.9056000000      0.7976000000     -2.3551000000 
  H147          5.7181000000     -3.8370000000     -3.4691000000 
  H148          6.6783000000     -2.3562000000     -5.2838000000 
   
  principal moments of inertia:
        amu*angstrom^2:    21932.48939    24632.54975    32107.49675
                g*cm^2: 3.64197509E-36 4.09033061E-36 5.33157460E-36
   
  rotational constants:
               cm^(-1):      0.00076861      0.00068436      0.00052504
                   GHz:      0.02304248      0.02051672      0.01574022
   
  Molecular weight:    1308.28 amu
   
  Stoichiometry: Si2C73PN4H56S2O7F3
[running at reduced cpu priority]
  Molecular Point Group: C1      
  Point Group used: C1
  
  nuclear repulsion energy.......   20778.038604747 hartrees
 
 Non-default options chosen:
   SCF calculation type: DFT(m06-2x)                 
   DFT=M06-2X
   Solvation energy will be computed using PBF
     -solute cavity energy will not be included
     -surface area terms will not be included
   Highest accuracy cutoffs used in SCF
   Solvent: other                                                           
   Internal dielectric constant:    1.000
   Continuum dielectric constant:   2.380
   Solvent probe molecule radius:   2.760
  
 Temporary integer options set:
     73=  2
  
  atom       vdw   vdw2    cov     mass  grid  daf  charge   basis
  C1        1.949  1.900  0.770   12.000    Y    Y      Y    6-31g**
  C2        1.949  1.900  0.770   12.000    Y    Y      Y    6-31g**
  C3        1.949  1.900  0.770   12.000    Y    Y      Y    6-31g**
  C4        1.949  1.900  0.770   12.000    Y    Y      Y    6-31g**
  H5        1.597  1.150  0.320    1.008    Y    Y      Y    6-31g**
  C6        1.949  1.900  0.770   12.000    Y    Y      Y    6-31g**
  C7        1.949  1.900  0.770   12.000    Y    Y      Y    6-31g**
  C8        1.949  1.900  0.770   12.000    Y    Y      Y    6-31g**
  C9        1.949  1.900  0.770   12.000    Y    Y      Y    6-31g**
  H10       1.597  1.150  0.320    1.008    Y    Y      Y    6-31g**
  C11       1.949  1.900  0.770   12.000    Y    Y      Y    6-31g**
  C12       1.949  1.900  0.770   12.000    Y    Y      Y    6-31g**
  C13       1.949  1.900  0.770   12.000    Y    Y      Y    6-31g**
  C14       1.949  1.900  0.770   12.000    Y    Y      Y    6-31g**
  C15       1.949  1.900  0.770   12.000    Y    Y      Y    6-31g**
  C16       1.949  1.900  0.770   12.000    Y    Y      Y    6-31g**
  H17       1.597  1.150  0.320    1.008    Y    Y      Y    6-31g**
  H18       1.597  1.150  0.320    1.008    Y    Y      Y    6-31g**
  H19       1.597  1.150  0.320    1.008    Y    Y      Y    6-31g**
  H20       1.597  1.150  0.320    1.008    Y    Y      Y    6-31g**
  C21       1.949  1.900  0.770   12.000    Y    Y      Y    6-31g**
  C22       1.949  1.900  0.770   12.000    Y    Y      Y    6-31g**
  C23       1.949  1.900  0.770   12.000    Y    Y      Y    6-31g**
  C24       1.949  1.900  0.770   12.000    Y    Y      Y    6-31g**
  C25       1.949  1.900  0.770   12.000    Y    Y      Y    6-31g**
  C26       1.949  1.900  0.770   12.000    Y    Y      Y    6-31g**
  H27       1.597  1.150  0.320    1.008    Y    Y      Y    6-31g**
  H28       1.597  1.150  0.320    1.008    Y    Y      Y    6-31g**
  H29       1.597  1.150  0.320    1.008    Y    Y      Y    6-31g**
  H30       1.597  1.150  0.320    1.008    Y    Y      Y    6-31g**
  Si31      2.217  2.147  1.110   27.977    Y    Y      Y    6-31g**
  Si32      2.217  2.147  1.110   27.977    Y    Y      Y    6-31g**
  C33       1.949  1.900  0.770   12.000    Y    Y      Y    6-31g**
  C34       1.949  1.900  0.770   12.000    Y    Y      Y    6-31g**
  C35       1.949  1.900  0.770   12.000    Y    Y      Y    6-31g**
  C36       1.949  1.900  0.770   12.000    Y    Y      Y    6-31g**
  C37       1.949  1.900  0.770   12.000    Y    Y      Y    6-31g**
  C38       1.949  1.900  0.770   12.000    Y    Y      Y    6-31g**
  H39       1.597  1.150  0.320    1.008    Y    Y      Y    6-31g**
  H40       1.597  1.150  0.320    1.008    Y    Y      Y    6-31g**
  H41       1.597  1.150  0.320    1.008    Y    Y      Y    6-31g**
  H42       1.597  1.150  0.320    1.008    Y    Y      Y    6-31g**
  H43       1.597  1.150  0.320    1.008    Y    Y      Y    6-31g**
  C44       1.949  1.900  0.770   12.000    Y    Y      Y    6-31g**
  C45       1.949  1.900  0.770   12.000    Y    Y      Y    6-31g**
  C46       1.949  1.900  0.770   12.000    Y    Y      Y    6-31g**
  C47       1.949  1.900  0.770   12.000    Y    Y      Y    6-31g**
  C48       1.949  1.900  0.770   12.000    Y    Y      Y    6-31g**
  C49       1.949  1.900  0.770   12.000    Y    Y      Y    6-31g**
  H50       1.597  1.150  0.320    1.008    Y    Y      Y    6-31g**
  H51       1.597  1.150  0.320    1.008    Y    Y      Y    6-31g**
  H52       1.597  1.150  0.320    1.008    Y    Y      Y    6-31g**
  H53       1.597  1.150  0.320    1.008    Y    Y      Y    6-31g**
  H54       1.597  1.150  0.320    1.008    Y    Y      Y    6-31g**
  C55       1.949  1.900  0.770   12.000    Y    Y      Y    6-31g**
  C56       1.949  1.900  0.770   12.000    Y    Y      Y    6-31g**
  C57       1.949  1.900  0.770   12.000    Y    Y      Y    6-31g**
  C58       1.949  1.900  0.770   12.000    Y    Y      Y    6-31g**
  C59       1.949  1.900  0.770   12.000    Y    Y      Y    6-31g**
  C60       1.949  1.900  0.770   12.000    Y    Y      Y    6-31g**
  H61       1.597  1.150  0.320    1.008    Y    Y      Y    6-31g**
  H62       1.597  1.150  0.320    1.008    Y    Y      Y    6-31g**
  H63       1.597  1.150  0.320    1.008    Y    Y      Y    6-31g**
  H64       1.597  1.150  0.320    1.008    Y    Y      Y    6-31g**
  H65       1.597  1.150  0.320    1.008    Y    Y      Y    6-31g**
  C66       1.949  1.900  0.770   12.000    Y    Y      Y    6-31g**
  C67       1.949  1.900  0.770   12.000    Y    Y      Y    6-31g**
  C68       1.949  1.900  0.770   12.000    Y    Y      Y    6-31g**
  C69       1.949  1.900  0.770   12.000    Y    Y      Y    6-31g**
  C70       1.949  1.900  0.770   12.000    Y    Y      Y    6-31g**
  C71       1.949  1.900  0.770   12.000    Y    Y      Y    6-31g**
  H72       1.597  1.150  0.320    1.008    Y    Y      Y    6-31g**
  H73       1.597  1.150  0.320    1.008    Y    Y      Y    6-31g**
  H74       1.597  1.150  0.320    1.008    Y    Y      Y    6-31g**
  H75       1.597  1.150  0.320    1.008    Y    Y      Y    6-31g**
  H76       1.597  1.150  0.320    1.008    Y    Y      Y    6-31g**
  C77       1.949  1.900  0.770   12.000    Y    Y      Y    6-31g**
  C78       1.949  1.900  0.770   12.000    Y    Y      Y    6-31g**
  C79       1.949  1.900  0.770   12.000    Y    Y      Y    6-31g**
  C80       1.949  1.900  0.770   12.000    Y    Y      Y    6-31g**
  C81       1.949  1.900  0.770   12.000    Y    Y      Y    6-31g**
  C82       1.949  1.900  0.770   12.000    Y    Y      Y    6-31g**
  H83       1.597  1.150  0.320    1.008    Y    Y      Y    6-31g**
  H84       1.597  1.150  0.320    1.008    Y    Y      Y    6-31g**
  H85       1.597  1.150  0.320    1.008    Y    Y      Y    6-31g**
  H86       1.597  1.150  0.320    1.008    Y    Y      Y    6-31g**
  H87       1.597  1.150  0.320    1.008    Y    Y      Y    6-31g**
  C88       1.949  1.900  0.770   12.000    Y    Y      Y    6-31g**
  C89       1.949  1.900  0.770   12.000    Y    Y      Y    6-31g**
  C90       1.949  1.900  0.770   12.000    Y    Y      Y    6-31g**
  C91       1.949  1.900  0.770   12.000    Y    Y      Y    6-31g**
  C92       1.949  1.900  0.770   12.000    Y    Y      Y    6-31g**
  C93       1.949  1.900  0.770   12.000    Y    Y      Y    6-31g**
  H94       1.597  1.150  0.320    1.008    Y    Y      Y    6-31g**
  H95       1.597  1.150  0.320    1.008    Y    Y      Y    6-31g**
  H96       1.597  1.150  0.320    1.008    Y    Y      Y    6-31g**
  H97       1.597  1.150  0.320    1.008    Y    Y      Y    6-31g**
  H98       1.597  1.150  0.320    1.008    Y    Y      Y    6-31g**
  O99       1.702  1.600  0.730   15.995    Y    Y      Y    6-31g**
  O100      1.702  1.600  0.730   15.995    Y    Y      Y    6-31g**
  P101      2.147  2.074  1.060   30.974    Y    Y      Y    6-31g**
  O102      1.702  1.600  0.730   15.995    Y    Y      Y    6-31g**
  N103      1.831  1.600  0.750   14.003    Y    Y      Y    6-31g**
  H104      1.597  1.150  0.320    1.008    Y    Y      Y    6-31g**
  C105      1.949  1.900  0.770   12.000    Y    Y      Y    6-31g**
  C106      1.949  1.900  0.770   12.000    Y    Y      Y    6-31g**
  C107      1.949  1.900  0.770   12.000    Y    Y      Y    6-31g**
  C108      1.949  1.900  0.770   12.000    Y    Y      Y    6-31g**
  C109      1.949  1.900  0.770   12.000    Y    Y      Y    6-31g**
  C110      1.949  1.900  0.770   12.000    Y    Y      Y    6-31g**
  C111      1.949  1.900  0.770   12.000    Y    Y      Y    6-31g**
  H112      1.597  1.150  0.320    1.008    Y    Y      Y    6-31g**
  H113      1.597  1.150  0.320    1.008    Y    Y      Y    6-31g**
  H114      1.597  1.150  0.320    1.008    Y    Y      Y    6-31g**
  H115      1.597  1.150  0.320    1.008    Y    Y      Y    6-31g**
  H116      1.597  1.150  0.320    1.008    Y    Y      Y    6-31g**
  H117      1.597  1.150  0.320    1.008    Y    Y      Y    6-31g**
  N118      1.831  1.600  0.750   14.003    Y    Y      Y    6-31g**
  S119      2.070  1.900  1.020   31.972    Y    Y      Y    6-31g**
  O120      1.702  1.600  0.730   15.995    Y    Y      Y    6-31g**
  O121      1.702  1.600  0.730   15.995    Y    Y      Y    6-31g**
  C122      1.949  1.900  0.770   12.000    Y    Y      Y    6-31g**
  F123      1.736  1.682  0.720   18.998    Y    Y      Y    6-31g**
  F124      1.736  1.682  0.720   18.998    Y    Y      Y    6-31g**
  F125      1.736  1.682  0.720   18.998    Y    Y      Y    6-31g**
  C126      1.949  1.900  0.770   12.000    Y    Y      Y    6-31g**
  C127      1.949  1.900  0.770   12.000    Y    Y      Y    6-31g**
  C128      1.949  1.900  0.770   12.000    Y    Y      Y    6-31g**
  C129      1.949  1.900  0.770   12.000    Y    Y      Y    6-31g**
  N130      1.831  1.600  0.750   14.003    Y    Y      Y    6-31g**
  H131      1.597  1.150  0.320    1.008    Y    Y      Y    6-31g**
  H132      1.597  1.150  0.320    1.008    Y    Y      Y    6-31g**
  H133      1.597  1.150  0.320    1.008    Y    Y      Y    6-31g**
  H134      1.597  1.150  0.320    1.008    Y    Y      Y    6-31g**
  H135      1.597  1.150  0.320    1.008    Y    Y      Y    6-31g**
  S136      2.070  1.900  1.020   31.972    Y    Y      Y    6-31g**
  O137      1.702  1.600  0.730   15.995    Y    Y      Y    6-31g**
  O138      1.702  1.600  0.730   15.995    Y    Y      Y    6-31g**
  C139      1.949  1.900  0.770   12.000    Y    Y      Y    6-31g**
  C140      1.949  1.900  0.770   12.000    Y    Y      Y    6-31g**
  N141      1.831  1.600  0.750   14.003    Y    Y      Y    6-31g**
  C142      1.949  1.900  0.770   12.000    Y    Y      Y    6-31g**
  C143      1.949  1.900  0.770   12.000    Y    Y      Y    6-31g**
  C144      1.949  1.900  0.770   12.000    Y    Y      Y    6-31g**
  H145      1.597  1.150  0.320    1.008    Y    Y      Y    6-31g**
  H146      1.597  1.150  0.320    1.008    Y    Y      Y    6-31g**
  H147      1.597  1.150  0.320    1.008    Y    Y      Y    6-31g**
  H148      1.597  1.150  0.320    1.008    Y    Y      Y    6-31g**
  
  Peak memory usage:    768 Mb
  
  end of program pre
   
 Time(pre)  user:        1.0  user+sys:        1.0  wallclock:        3.5
  
  start of program onee
  
  smallest eigenvalue of S:    2.129E-04
  number of canonical orbitals.....         1673
  Peak memory usage:    900 Mb
  
  end of program onee
   
 Time(onee)  user:       17.5  user+sys:       17.5  wallclock:       58.2
  
  start of program hfig
  
  initial wavefunction generated automatically from atomic wavefunctions
 
  Irreducible     Total no   No of occupied orbitals 
  representation  orbitals   Shell_1  Shell_2    ...
  No Symm         1673        340
  ------------------------
  Orbital occupation/shell    1.000
 
  Peak memory usage:    833 Mb
  
  end of program hfig
   
 Time(hfig)  user:       28.5  user+sys:       28.5  wallclock:      106.6
  
  start of program probe
  
  Peak memory usage:    826 Mb
  
  end of program probe
   
 Time(probe)  user:       20.7  user+sys:       20.7  wallclock:       78.9
  
  start of program grid
  
   grid     grid set  grid #  grid sym
  ------    --------  ------  --------
  coarse        0        0        1
  medium        2        1        1
  fine          0        0        1
  ultrafine     4        2        1
  charge       -1        3        1
  gradient      4        2        1
  density       0        0        1
  DFT-fine    -13        4        1
  DFT-med.    -13        4        1
  DFT-grad    -13        4        1
  DFT-der2      0        0        1
  DFT-cphf      0        0        1
  LMP2-enrg     4        2        1
  LMP2-grad     2        1        1
  DFT-cphf2     0        0        1
  PBF-dens      0        0        1
  plotting      0        0        1
  Rel-grad    -17        0        1
  
  number of gridpoints: 
     atom        C1       C2       C3       C4       H5       C6       C7
  grid # 1      100       94      101       97      110       92      101
  grid # 2      359      338      358      359      423      333      356
  grid # 3       14       29       12       17      172       12        7
  grid # 4    48124    48124    48124    48124    48426    48124    48124
   
  number of gridpoints: 
     atom        C8       C9      H10      C11      C12      C13      C14
  grid # 1       96      100      113      102      102       97       94
  grid # 2      356      355      430      360      367      339      338
  grid # 3       18        6      208       29       45       48       47
  grid # 4    48124    48124    48426    48124    48124    48124    48124
   
  number of gridpoints: 
     atom       C15      C16      H17      H18      H19      H20      C21
  grid # 1       95       97      118      118      118      111      101
  grid # 2      338      338      443      450      450      432      365
  grid # 3       41       31      361      420      411      220       24
  grid # 4    48124    48124    48426    48426    48426    48426    48124
   
  number of gridpoints: 
     atom       C22      C23      C24      C25      C26      H27      H28
  grid # 1      100       96       93       93       95      113      118
  grid # 2      357      334      336      335      336      435      451
  grid # 3        6       19       32       38       32      246      417
  grid # 4    48124    48124    48124    48124    48124    48426    48426
   
  number of gridpoints: 
     atom       H29      H30     Si31     Si32      C33      C34      C35
  grid # 1      118      117      469      473       94       93       92
  grid # 2      453      445      469      473      335      335      335
  grid # 3      423      355        7        9       47       39       18
  grid # 4    48426    48426    38542    38542    48124    48124    48124
   
  number of gridpoints: 
     atom       C36      C37      C38      H39      H40      H41      H42
  grid # 1      101       97       94      118      118      112      112
  grid # 2      361      339      336      453      452      436      432
  grid # 3       14       34       45      424      415      250      233
  grid # 4    48124    48124    48124    48426    48426    48426    48426
   
  number of gridpoints: 
     atom       H43      C44      C45      C46      C47      C48      C49
  grid # 1      118       93       92       92      100       96       94
  grid # 2      453      332      333      333      356      337      332
  grid # 3      425       27       22       13        7       20       26
  grid # 4    48426    48124    48124    48124    48124    48124    48124
   
  number of gridpoints: 
     atom       H50      H51      H52      H53      H54      C55      C56
  grid # 1      117      117      112      105      116       93       93
  grid # 2      452      451      440      411      444      335      331
  grid # 3      397      389      260       94      325       36       28
  grid # 4    48426    48426    48426    48426    48426    48124    48124
   
  number of gridpoints: 
     atom       C57      C58      C59      C60      H61      H62      H63
  grid # 1       92      101       96       93      117      115      112
  grid # 2      335      359      335      334      451      444      431
  grid # 3       17        8       17       27      381      318      242
  grid # 4    48124    48124    48124    48124    48426    48426    48426
   
  number of gridpoints: 
     atom       H64      H65      C66      C67      C68      C69      C70
  grid # 1      109      113       93       93       92      101       97
  grid # 2      424      432      332      333      333      358      333
  grid # 3      175      231       27       22        9       15       22
  grid # 4    48426    48426    48124    48124    48124    48124    48124
   
  number of gridpoints: 
     atom       C71      H72      H73      H74      H75      H76      C77
  grid # 1       93      113      117      112      107      110       93
  grid # 2      331      437      450      428      414      426      334
  grid # 3       26      260      374      225      109      173       31
  grid # 4    48124    48426    48426    48426    48426    48426    48124
   
  number of gridpoints: 
     atom       C78      C79      C80      C81      C82      H83      H84
  grid # 1       93       94      102       96       93      115      117
  grid # 2      336      335      360      336      335      444      451
  grid # 3       37       31       21       23       31      331      406
  grid # 4    48124    48124    48124    48124    48124    48426    48426
   
  number of gridpoints: 
     atom       H85      H86      H87      C88      C89      C90      C91
  grid # 1      110      107      112       94       94       93      101
  grid # 2      427      413      436      336      336      338      360
  grid # 3      197      101      247       49       46       37       21
  grid # 4    48426    48426    48426    48124    48124    48124    48124
   
  number of gridpoints: 
     atom       C92      C93      H94      H95      H96      H97      H98
  grid # 1       95       94      118      118      112      110      118
  grid # 2      334      337      453      453      431      427      452
  grid # 3       29       42      424      418      229      186      421
  grid # 4    48124    48124    48426    48426    48426    48426    48426
   
  number of gridpoints: 
     atom       O99     O100     P101     O102     N103     H104     C105
  grid # 1      111      112      449      115       99      102       92
  grid # 2      433      437      449      451      356      395      323
  grid # 3       27       47        8       39       21       77        7
  grid # 4    47716    47716    38640    47716    47928    48426    48124
   
  number of gridpoints: 
     atom      C106     C107     C108     C109     C110     C111     H112
  grid # 1       97       96       95       96       95       95      118
  grid # 2      332      333      331      355      333      332      451
  grid # 3       41       43       28       21       17       31      417
  grid # 4    48124    48124    48124    48124    48124    48124    48426
   
  number of gridpoints: 
     atom      H113     H114     H115     H116     H117     N118     S119
  grid # 1      118      108      105      109      100      109      430
  grid # 2      450      422      408      430      398      399      430
  grid # 3      408      171       81      200       40       14        6
  grid # 4    48426    48426    48426    48426    48426    47928    48492
   
  number of gridpoints: 
     atom      O120     O121     C122     F123     F124     F125     C126
  grid # 1      121      116       90      520      522      535       91
  grid # 2      479      458      319      520      522      535      319
  grid # 3       95       71        7      116      145      300        7
  grid # 4    47716    47716    48124    47062    47062    47062    48124
   
  number of gridpoints: 
     atom      C127     C128     C129     N130     H131     H132     H133
  grid # 1       93       93       94       96      103      110      117
  grid # 2      331      329      328      338      413      435      459
  grid # 3       14       20       14        7       79      211      436
  grid # 4    48124    48124    48124    47928    48426    48426    48426
   
  number of gridpoints: 
     atom      H134     H135     S136     O137     O138     C139     C140
  grid # 1      113      100      441      121      122       97       96
  grid # 2      443      401      441      484      497      333      338
  grid # 3      278       69       12      179      245       44       36
  grid # 4    48426    48426    48492    47716    47716    48124    48124
   
  number of gridpoints: 
     atom      N141     C142     C143     C144     H145     H146     H147
  grid # 1      110       98       96       97      118      113      114
  grid # 2      412      357      332      333      451      437      444
  grid # 3       68       32       41       44      424      291      335
  grid # 4    47928    48124    48124    48124    48426    48426    48426
   
  number of gridpoints: 
     atom      H148    total
  grid # 1      118    18372
  grid # 2      452    57837
  grid # 3      431    19175
  grid # 4    48426  7104526
   
  Peak memory usage:    795 Mb
  
  end of program grid
   
 Time(grid)  user:     1148.4  user+sys:     1148.4  wallclock:     4801.1
  
  start of program rwr
  
  Peak memory usage:    814 Mb
  
  end of program rwr
   
 Time(rwr)  user:       72.3  user+sys:       72.3  wallclock:      331.3
  
  start of program scf
  
 number of electrons..........        680
 number of alpha electrons....        340
 number of beta electrons.....        340
 number of orbitals, total....       1673
 number of doubly-occ'd orbs..        340
 number of open shell orbs....          0
 number of occupied orbitals..        340
 number of virtual orbitals...       1333
 number of hamiltonians.......          1
 number of shells.............          1
 SCF type: DFT=M06-2X
 Energy computed with NOPS off.
  
       i  u  d  i  g                   
       t  p  i  c  r                                 RMS    maximum
       e  d  i  u  i                       energy  density   DIIS  
       r  t  s  t  d       total energy    change  change    error 
  
etot    1  N  N  1  U   -5562.72953029974           3.6E-03  1.2E-01
etot    2  N  Y  1  U   -5537.90170645500 -2.5E+01  1.6E-02  1.2E-01
etot    3  N  Y  1  U   -5320.79679316812 -2.2E+02  1.5E-02  3.8E-01
etot    4  N  Y  1  U   -5561.43112220194  2.4E+02  3.4E-03  1.1E-01
etot    5  N  Y  1  U   -5571.06938171058  9.6E+00  2.5E-03  4.1E-02
etot    6  N  Y  1  U   -5558.63308273675 -1.2E+01  1.9E-03  9.3E-02
etot    7  N  Y  1  U   -5575.29644117168  1.7E+01  4.5E-04  2.4E-02
etot    8  N  Y  1  U   -5575.49928845446  2.0E-01  1.6E-04  1.5E-02
etot    9  N  Y  1  U   -5575.54054344157  4.1E-02  5.4E-05  3.6E-03
etot   10  N  Y  1  U   -5575.54627835908  5.7E-03  2.1E-05  9.5E-04
etot   11  N  Y  1  U   -5575.54675667526  4.8E-04  1.1E-05  7.0E-04
etot   12  N  Y  1  U   -5575.54696423310  2.1E-04  4.9E-06  1.5E-04
etot   13  N  N  1  U   -5575.54699281502  2.9E-05  0.0E+00  0.0E+00
  
  
 Energy components, in hartrees:
   (A)  Nuclear repulsion............   20778.03860474705
   (E)  Total one-electron terms.....  -49083.97085305647
   (F)    Electron-nuclear...........  -54619.98610893326
   (H)    Kinetic....................    5536.01525587678
   (I)  Total two-electron terms.....   22730.38525549441
   (J)    Coulomb....................   23381.63470649465
   (K)    Exchange+Correlation.......    -651.24945100024
   (L)  Electronic energy............  -26353.58559756207  (E+I)
   (M)  -V/T.........................       2.00714082876  (-(A+F+I)/H)
   (N)  Total energy.................   -5575.54699281502  (A+L)
   (O)  Gas phase energy.............   -5575.54699281502
  
 SCFE: SCF energy: DFT(m06-2x)     -5575.54699281502 hartrees   iterations:  13
  
 
 HOMO energy:    -0.25161
 LUMO energy:    -0.06181
 
  Orbital energies (hartrees): 
   -90.18096   -90.15123   -78.20946   -67.00830   -67.00212   -25.28709
   -25.28586   -25.28442   -19.68730   -19.68649   -19.65741   -19.65472
   -19.63170   -19.62250   -19.60501   -14.82249   -14.81320   -14.80572
   -14.73963   -10.80272   -10.66362   -10.64498   -10.62425   -10.62187
   -10.61958   -10.60911   -10.60410   -10.60109   -10.59625   -10.59134
   -10.58134   -10.57011   -10.56790   -10.56779   -10.56659   -10.56657
   -10.56649   -10.56481   -10.56428   -10.56161   -10.56015   -10.56012
   -10.55826   -10.55773   -10.55585   -10.55248   -10.55113   -10.55080
   -10.55064   -10.54994   -10.54989   -10.54969   -10.54916   -10.54895
   -10.54885   -10.54870   -10.54851   -10.54847   -10.54756   -10.54744
   -10.54646   -10.54643   -10.54586   -10.54509   -10.54493   -10.54492
   -10.54459   -10.54455   -10.54433   -10.54357   -10.54293   -10.54281
   -10.54273   -10.54140   -10.54074   -10.53985   -10.53941   -10.53879
   -10.53814   -10.53631   -10.53605   -10.53535   -10.53310   -10.53153
   -10.53118   -10.53036   -10.52966   -10.52893   -10.52889   -10.52836
   -10.52552   -10.51858    -8.49114    -8.46003    -6.98882    -6.41346
    -6.41214    -6.41178    -6.38185    -6.38159    -6.38135    -5.53945
    -5.53343    -5.10746    -5.10614    -5.10469    -3.84930    -3.84883
    -3.84878    -3.84321    -3.84290    -3.84268    -1.45248    -1.36232
    -1.36016    -1.25009    -1.22892    -1.21684    -1.18373    -1.13529
    -1.10514    -1.10229    -1.09716    -1.08749    -1.06876    -0.98705
    -0.97851    -0.97172    -0.96421    -0.94326    -0.93956    -0.93891
    -0.93883    -0.93632    -0.93465    -0.92444    -0.91948    -0.91116
    -0.90833    -0.88767    -0.88685    -0.88172    -0.85140    -0.85117
    -0.84175    -0.84078    -0.83606    -0.83519    -0.83390    -0.83059
    -0.83025    -0.82868    -0.82774    -0.82552    -0.82434    -0.82327
    -0.82284    -0.82219    -0.82164    -0.81661    -0.81635    -0.81260
    -0.79816    -0.76033    -0.75788    -0.75263    -0.72870    -0.72086
    -0.70692    -0.70184    -0.70151    -0.69625    -0.68726    -0.68097
    -0.68085    -0.67791    -0.67695    -0.67500    -0.67353    -0.67183
    -0.67092    -0.67018    -0.66950    -0.66633    -0.66472    -0.66155
    -0.66144    -0.65922    -0.65909    -0.65732    -0.65549    -0.64966
    -0.64786    -0.64024    -0.63434    -0.62400    -0.61578    -0.61221
    -0.60664    -0.59911    -0.59747    -0.58995    -0.58351    -0.57930
    -0.57834    -0.57707    -0.57649    -0.57447    -0.57242    -0.57189
    -0.56611    -0.55930    -0.55651    -0.55370    -0.55316    -0.54776
    -0.54621    -0.54523    -0.54167    -0.53635    -0.53467    -0.53084
    -0.52841    -0.52592    -0.52426    -0.52056    -0.51841    -0.51500
    -0.51471    -0.51470    -0.51337    -0.51139    -0.50900    -0.50853
    -0.50626    -0.50616    -0.50466    -0.50381    -0.50124    -0.49910
    -0.49763    -0.49700    -0.49583    -0.49570    -0.49536    -0.49336
    -0.49233    -0.49216    -0.49071    -0.48901    -0.48857    -0.48290
    -0.48234    -0.48131    -0.47887    -0.47748    -0.47705    -0.47505
    -0.47381    -0.47239    -0.46932    -0.46567    -0.46515    -0.46058
    -0.45709    -0.45201    -0.45145    -0.44668    -0.44561    -0.44507
    -0.44226    -0.44066    -0.43728    -0.43473    -0.42917    -0.42869
    -0.42558    -0.42378    -0.42159    -0.42035    -0.42033    -0.41759
    -0.41664    -0.41454    -0.41092    -0.40766    -0.40625    -0.40471
    -0.39956    -0.39733    -0.39624    -0.39592    -0.39305    -0.39240
    -0.38805    -0.38676    -0.38649    -0.38504    -0.38485    -0.38447
    -0.38161    -0.37861    -0.37615    -0.37578    -0.37424    -0.37305
    -0.36588    -0.35871    -0.35693    -0.35383    -0.35165    -0.34746
    -0.34344    -0.34120    -0.33896    -0.33638    -0.33096    -0.32858
    -0.32699    -0.32606    -0.32194    -0.31875    -0.30799    -0.30134
    -0.30056    -0.29916    -0.29591    -0.29496    -0.29276    -0.29132
    -0.28889    -0.28648    -0.28557    -0.28393    -0.28301    -0.28107
    -0.27991    -0.27542    -0.27096    -0.25161    -0.06181    -0.03339
    -0.01659    -0.01547     0.00028     0.01186     0.01790     0.02087
     0.02224     0.02334
 
  Peak memory usage:   1028 Mb
  
  end of program scf
   
 Time(scf)  user:    36899.0  user+sys:    36899.0  wallclock:   157909.6
  
  start of program ch
  
  gridpoints used for charge fit        16617
    out of a possible maximum of        19175
  
   Electrostatic potential fitting constrained to reproduce
     total charge:                yes
     dipole moment:               no 
     traceless quadrupole moment: no 
     traceless octapole moment:   no 
  
  Atomic charges from electrostatic potential: 
   
 Atom       C1           C2           C3           C4           H5      
 Charge   -0.08378     -0.43764      0.13785      0.01670      0.18456
   
 Atom       C6           C7           C8           C9           H10     
 Charge   -0.33978     -0.05069      0.11088     -0.01255      0.19105
   
 Atom       C11          C12          C13          C14          C15     
 Charge    0.04547      0.25332     -0.24497     -0.11543     -0.15608
   
 Atom       C16          H17          H18          H19          H20     
 Charge   -0.13000      0.15118      0.13123      0.14163      0.09913
   
 Atom       C21          C22          C23          C24          C25     
 Charge    0.15782      0.16052     -0.22609     -0.14723     -0.11928
   
 Atom       C26          H27          H28          H29          H30     
 Charge   -0.23636      0.14980      0.14585      0.13531      0.15064
   
 Atom       Si31         Si32         C33          C34          C35     
 Charge    0.06649      0.18387     -0.14392     -0.14282     -0.15483
   
 Atom       C36          C37          C38          H39          H40     
 Charge    0.09499     -0.19997     -0.10274      0.13143      0.13116
   
 Atom       H41          H42          H43          C44          C45     
 Charge    0.12247      0.11431      0.12728     -0.15273     -0.17169
   
 Atom       C46          C47          C48          C49          H50     
 Charge   -0.09954      0.15244     -0.29488     -0.05407      0.13943
   
 Atom       H51          H52          H53          H54          C55     
 Charge    0.13801      0.08957      0.15013      0.10910     -0.18550
   
 Atom       C56          C57          C58          C59          C60     
 Charge   -0.13049     -0.14954      0.06267     -0.15241     -0.05045
   
 Atom       H61          H62          H63          H64          H65     
 Charge    0.13387      0.12426      0.11375      0.09857      0.09513
   
 Atom       C66          C67          C68          C69          C70     
 Charge   -0.12511     -0.24139      0.00583      0.05868     -0.33142
   
 Atom       C71          H72          H73          H74          H75     
 Charge    0.01854      0.12550      0.14717      0.07489      0.20302
   
 Atom       H76          C77          C78          C79          C80     
 Charge    0.07466     -0.06631     -0.16479     -0.12164     -0.05617
   
 Atom       C81          C82          H83          H84          H85     
 Charge   -0.03344     -0.18992      0.11105      0.13057      0.12955
   
 Atom       H86          H87          C88          C89          C90     
 Charge    0.04655      0.12365     -0.11176     -0.17153     -0.05224
   
 Atom       C91          C92          C93          H94          H95     
 Charge   -0.05255     -0.14070     -0.12374      0.12503      0.13666
   
 Atom       H96          H97          H98          O99          O100    
 Charge    0.07772      0.12564      0.12358     -0.23409     -0.19698
   
 Atom       P101         O102         N103         H104         C105    
 Charge    0.82211     -0.50939     -0.41207      0.33266     -0.01380
   
 Atom       C106         C107         C108         C109         C110    
 Charge   -0.07060     -0.18333     -0.17118      0.29686     -0.16799
   
 Atom       C111         H112         H113         H114         H115    
 Charge   -0.16498      0.12913      0.15213      0.17600      0.14528
   
 Atom       H116         H117         N118         S119         O120    
 Charge    0.13199      0.14860     -0.46943      0.38588     -0.34638
   
 Atom       O121         C122         F123         F124         F125    
 Charge   -0.40742      0.49099     -0.12068     -0.13896     -0.14280
   
 Atom       C126         C127         C128         C129         N130    
 Charge   -0.00284     -0.09308     -0.32012     -0.05381      0.03218
   
 Atom       H131         H132         H133         H134         H135    
 Charge    0.11515      0.16585      0.19765      0.15799      0.17381
   
 Atom       S136         O137         O138         C139         C140    
 Charge    0.57863     -0.39868     -0.40238     -0.48206      0.45958
   
 Atom       N141         C142         C143         C144         H145    
 Charge   -0.61183      0.61641     -0.49241      0.21059      0.20732
   
 Atom       H146         H147         H148    
 Charge    0.03371      0.22400      0.11079
  
  sum of atomic charges:    -0.000000
   
 RMS Error   9.99E-04 hartrees
 
  Peak memory usage:    816 Mb
  
  end of program ch
   
 Time(ch)  user:       19.3  user+sys:       19.3  wallclock:       83.7
  
  start of program post
  
  Writing input files for PBF
  Peak memory usage:    759 Mb
  
  end of program post
   
 Time(post)  user:        0.9  user+sys:        0.9  wallclock:        4.6

  start of program pbf

Pbf Version 4.10

Molecular surface area:      850.05353   [A2]
Reaction field energy:       -17.20301   [kT]
  Peak memory usage: 720 Mb

  end of program pbf

 Time(pbf)  user:       17.4  user+sys:       17.6  wallclock:       70.6
  
  start of program solv
  
   number of surface charges from PBF   13224
   sum of surface charges     -0.00029
   
  nuclear repulsion energy.......   20778.038604747 hartrees
  Peak memory usage:    894 Mb
  
  end of program solv
   
 Time(solv)  user:       37.4  user+sys:       37.4  wallclock:      168.2
  
  start of program scf
  
 Energy computed with NOPS off.
  
       i  u  d  i  g                   
       t  p  i  c  r                                 RMS    maximum
       e  d  i  u  i                       energy  density   DIIS  
       r  t  s  t  d       total energy    change  change    error 
  
etot    1  N  N  1  U   -5575.58299695310           5.0E-05  1.2E-03
etot    2  N  Y  1  U   -5575.58374164274  7.4E-04  1.7E-05  1.1E-03
etot    3  N  Y  1  U   -5575.58399392585  2.5E-04  5.8E-06  5.1E-04
etot    4  N  Y  1  U   -5575.58404978474  5.6E-05  2.5E-06  1.1E-04
etot    5  N  N  1  U   -5575.58405650180  6.7E-06  0.0E+00  0.0E+00
  
  
 Energy components, in hartrees:
   (A)  Total zero-electron terms....   20781.08744020856
   (B)    Nuclear-nuclear............   20778.03860474705
   (C)    Nuclear-solvent............       3.04883546152
   (E)  Total one-electron terms.....  -49088.71592379065
   (F)    Electron-nuclear...........  -54621.70933924804
   (G)    Electron-solvent...........      -3.08693181936
   (H)    Kinetic....................    5536.08034727675
   (I)  Total two-electron terms.....   22732.04442708028
   (J)    Coulomb....................   23383.31630562873
   (K)    Exchange+Correlation.......    -651.27187854844
   (L)  Electronic energy............  -26356.67149671036  (E+I)
   (N)  Total quantum mech. energy...   -5575.58405650180  (A+L)
   (O)  Gas phase energy.............   -5575.54699281502
   (P)  Solution phase energy........   -5575.56500832288  (Q+R+S)
   (Q)    Total solute energy........   -5575.54596014396  (N-C-G)
   (R)    Total solvent energy.......      -0.01904817892  (C/2+G/2)
   (S)    Solute cavity energy.......       0.00000000000
   (U)  Reorganization energy........       0.00103267106  (Q-O)
   (V)  Solvation energy.............      -0.01801550786  (P-O)
  
 SCFE:  Solution phase energy: DFT(m06-2x)      -5575.56500832288 hartrees
        SCF iterations:   5
  
 
 HOMO energy:    -0.25512
 LUMO energy:    -0.06231
 
  Orbital energies (hartrees): 
   -90.18407   -90.15562   -78.21238   -67.01099   -67.00577   -25.29241
   -25.29219   -25.28967   -19.69072   -19.69002   -19.66064   -19.65858
   -19.63519   -19.62636   -19.60810   -14.82433   -14.81338   -14.79977
   -14.74315   -10.80830   -10.66412   -10.64051   -10.62783   -10.62217
   -10.61469   -10.60846   -10.59594   -10.59457   -10.59187   -10.58783
   -10.58159   -10.57381   -10.57171   -10.57030   -10.56766   -10.56692
   -10.56666   -10.56507   -10.56444   -10.56237   -10.56163   -10.56060
   -10.56041   -10.55981   -10.55634   -10.55466   -10.55400   -10.55349
   -10.55289   -10.55223   -10.55204   -10.55141   -10.55130   -10.55130
   -10.55098   -10.55095   -10.55094   -10.55060   -10.54993   -10.54954
   -10.54928   -10.54831   -10.54783   -10.54751   -10.54736   -10.54714
   -10.54701   -10.54644   -10.54615   -10.54578   -10.54574   -10.54503
   -10.54493   -10.54466   -10.54320   -10.54184   -10.54183   -10.54109
   -10.54064   -10.53975   -10.53911   -10.53909   -10.53601   -10.53539
   -10.53413   -10.53375   -10.53307   -10.53275   -10.53189   -10.53156
   -10.52826   -10.52218    -8.49416    -8.46438    -6.99178    -6.41647
    -6.41525    -6.41473    -6.38620    -6.38593    -6.38571    -5.54212
    -5.53705    -5.11041    -5.10910    -5.10765    -3.85197    -3.85150
    -3.85146    -3.84683    -3.84652    -3.84631    -1.45820    -1.36828
    -1.36562    -1.25374    -1.23229    -1.22079    -1.18703    -1.13951
    -1.10633    -1.10560    -1.09216    -1.09002    -1.07027    -0.99064
    -0.98162    -0.97182    -0.96728    -0.94599    -0.94323    -0.94092
    -0.93889    -0.93751    -0.93197    -0.92855    -0.92215    -0.91134
    -0.90751    -0.89081    -0.88672    -0.88057    -0.85394    -0.85135
    -0.84455    -0.84366    -0.83770    -0.83739    -0.83595    -0.83415
    -0.83266    -0.83106    -0.83032    -0.82816    -0.82763    -0.82684
    -0.82502    -0.82487    -0.82425    -0.82009    -0.81640    -0.81616
    -0.80117    -0.76209    -0.75749    -0.74580    -0.73226    -0.71976
    -0.70992    -0.70426    -0.70144    -0.69879    -0.69033    -0.68525
    -0.68249    -0.68124    -0.67973    -0.67886    -0.67604    -0.67429
    -0.67334    -0.67213    -0.67023    -0.66841    -0.66719    -0.66350
    -0.66225    -0.66167    -0.66050    -0.65879    -0.65626    -0.65270
    -0.65104    -0.64078    -0.63641    -0.62662    -0.61484    -0.61077
    -0.60890    -0.60194    -0.59990    -0.58738    -0.58487    -0.58164
    -0.58050    -0.57871    -0.57730    -0.57598    -0.57415    -0.57085
    -0.56905    -0.56374    -0.55985    -0.55908    -0.55399    -0.55083
    -0.54758    -0.54450    -0.54182    -0.53814    -0.53740    -0.53307
    -0.53044    -0.52741    -0.52723    -0.52354    -0.52181    -0.51851
    -0.51673    -0.51621    -0.51509    -0.51307    -0.51129    -0.50957
    -0.50878    -0.50718    -0.50296    -0.50258    -0.50192    -0.50126
    -0.49963    -0.49915    -0.49873    -0.49743    -0.49594    -0.49503
    -0.49478    -0.49355    -0.49240    -0.49103    -0.48941    -0.48640
    -0.48428    -0.48322    -0.48113    -0.48015    -0.47903    -0.47706
    -0.47549    -0.47162    -0.46854    -0.46634    -0.46575    -0.46327
    -0.45724    -0.45530    -0.45350    -0.44874    -0.44825    -0.44637
    -0.44467    -0.44361    -0.43832    -0.43804    -0.43252    -0.43151
    -0.42760    -0.42610    -0.42434    -0.42351    -0.42282    -0.41958
    -0.41933    -0.41718    -0.41378    -0.41087    -0.40909    -0.40673
    -0.40168    -0.40012    -0.39860    -0.39730    -0.39484    -0.39423
    -0.39081    -0.38938    -0.38932    -0.38790    -0.38757    -0.38668
    -0.38393    -0.38158    -0.37927    -0.37775    -0.37612    -0.36994
    -0.36905    -0.36285    -0.35683    -0.35358    -0.35046    -0.34689
    -0.34640    -0.34363    -0.34119    -0.33956    -0.33438    -0.33096
    -0.33008    -0.32802    -0.32489    -0.31937    -0.30855    -0.30499
    -0.30375    -0.30240    -0.30029    -0.29723    -0.29571    -0.29363
    -0.29232    -0.28984    -0.28873    -0.28673    -0.28649    -0.28443
    -0.28152    -0.27957    -0.27393    -0.25512    -0.06231    -0.02852
    -0.02008    -0.00904    -0.00249     0.00831     0.01492     0.01831
     0.01937     0.02270
 
  Peak memory usage:   1029 Mb
  
  end of program scf
   
 Time(scf)  user:    10982.4  user+sys:    10982.4  wallclock:    40994.1
  
  start of program sole
  
    SCRF                   solvation energy
  iteration          Hartrees            kcal/mol
     0               0.0000000            0.0000
     1              -0.0180155          -11.3049
  
  solvation energy not yet converged... 
  
  Peak memory usage:    813 Mb
  
  end of program sole
   
 Time(sole)  user:        0.2  user+sys:        0.2  wallclock:        0.8
  
  start of program ch
  
  gridpoints used for charge fit        16617
    out of a possible maximum of        16617
  
   Electrostatic potential fitting constrained to reproduce
     total charge:                yes
     dipole moment:               no 
     traceless quadrupole moment: no 
     traceless octapole moment:   no 
  
  Atomic charges from electrostatic potential: 
   
 Atom       C1           C2           C3           C4           H5      
 Charge   -0.07947     -0.45524      0.15709     -0.00175      0.19148
   
 Atom       C6           C7           C8           C9           H10     
 Charge   -0.35497     -0.02775      0.09151     -0.01153      0.19932
   
 Atom       C11          C12          C13          C14          C15     
 Charge    0.04349      0.26003     -0.25673     -0.11838     -0.16564
   
 Atom       C16          H17          H18          H19          H20     
 Charge   -0.12773      0.15911      0.13886      0.15049      0.09967
   
 Atom       C21          C22          C23          C24          C25     
 Charge    0.15995      0.16375     -0.23034     -0.15378     -0.12607
   
 Atom       C26          H27          H28          H29          H30     
 Charge   -0.24332      0.15200      0.15382      0.14335      0.15731
   
 Atom       Si31         Si32         C33          C34          C35     
 Charge    0.04697      0.17153     -0.15163     -0.14844     -0.15943
   
 Atom       C36          C37          C38          H39          H40     
 Charge    0.09653     -0.20288     -0.11143      0.13960      0.13910
   
 Atom       H41          H42          H43          C44          C45     
 Charge    0.12690      0.11417      0.13586     -0.16547     -0.17618
   
 Atom       C46          C47          C48          C49          H50     
 Charge   -0.10403      0.16443     -0.30406     -0.05709      0.14792
   
 Atom       H51          H52          H53          H54          C55     
 Charge    0.14431      0.09226      0.15135      0.11096     -0.18586
   
 Atom       C56          C57          C58          C59          C60     
 Charge   -0.13974     -0.15468      0.06798     -0.15275     -0.06900
   
 Atom       H61          H62          H63          H64          H65     
 Charge    0.14056      0.13215      0.11787      0.09967      0.10520
   
 Atom       C66          C67          C68          C69          C70     
 Charge   -0.13335     -0.24766      0.00520      0.06423     -0.34866
   
 Atom       C71          H72          H73          H74          H75     
 Charge    0.02439      0.13070      0.15450      0.07871      0.20479
   
 Atom       H76          C77          C78          C79          C80     
 Charge    0.07514     -0.07675     -0.16655     -0.13678     -0.05567
   
 Atom       C81          C82          H83          H84          H85     
 Charge   -0.03904     -0.19057      0.11820      0.13736      0.13616
   
 Atom       H86          H87          C88          C89          C90     
 Charge    0.04496      0.12810     -0.11728     -0.18170     -0.05407
   
 Atom       C91          C92          C93          H94          H95     
 Charge   -0.05617     -0.14265     -0.13157      0.13325      0.14539
   
 Atom       H96          H97          H98          O99          O100    
 Charge    0.07940      0.12891      0.13151     -0.21961     -0.17177
   
 Atom       P101         O102         N103         H104         C105    
 Charge    0.77636     -0.48962     -0.41155      0.32692     -0.01013
   
 Atom       C106         C107         C108         C109         C110    
 Charge   -0.07715     -0.18494     -0.17659      0.28984     -0.16782
   
 Atom       C111         H112         H113         H114         H115    
 Charge   -0.16916      0.13843      0.16009      0.17766      0.14882
   
 Atom       H116         H117         N118         S119         O120    
 Charge    0.13827      0.14362     -0.44774      0.36716     -0.33890
   
 Atom       O121         C122         F123         F124         F125    
 Charge   -0.40481      0.49434     -0.12062     -0.13970     -0.14615
   
 Atom       C126         C127         C128         C129         N130    
 Charge    0.01741     -0.10302     -0.32328     -0.05091      0.02427
   
 Atom       H131         H132         H133         H134         H135    
 Charge    0.11315      0.16944      0.20592      0.16680      0.17221
   
 Atom       S136         O137         O138         C139         C140    
 Charge    0.59748     -0.41804     -0.42433     -0.48509      0.46581
   
 Atom       N141         C142         C143         C144         H145    
 Charge   -0.63127      0.61670     -0.49833      0.21496      0.21778
   
 Atom       H146         H147         H148    
 Charge    0.03880      0.23218      0.12246
  
  sum of atomic charges:    -0.000000
   
 RMS Error   1.01E-03 hartrees
 
  Peak memory usage:    816 Mb
  
  end of program ch
   
 Time(ch)  user:       19.3  user+sys:       19.3  wallclock:       77.2
  
  start of program post
  
  Writing input files for PBF
  Peak memory usage:    759 Mb
  
  end of program post
   
 Time(post)  user:        0.8  user+sys:        0.8  wallclock:        4.1

  start of program pbf

Pbf Version 4.10

Molecular surface area:      850.05353   [A2]
Reaction field energy:       -19.64676   [kT]
  Peak memory usage: 720 Mb

  end of program pbf

 Time(pbf)  user:       18.0  user+sys:       18.2  wallclock:       64.0
  
  start of program solv
  
   number of surface charges from PBF   13224
   sum of surface charges     -0.00031
   
  nuclear repulsion energy.......   20778.038604747 hartrees
  Peak memory usage:    894 Mb
  
  end of program solv
   
 Time(solv)  user:       37.4  user+sys:       37.4  wallclock:      140.2
  
  start of program scf
  
 Energy computed with NOPS off.
  
       i  u  d  i  g                   
       t  p  i  c  r                                 RMS    maximum
       e  d  i  u  i                       energy  density   DIIS  
       r  t  s  t  d       total energy    change  change    error 
  
etot    1  N  N  1  U   -5575.58666619490           5.6E-06  1.4E-04
etot    2  N  N  1  U   -5575.58666904770  2.9E-06  0.0E+00  0.0E+00
  
  
 Energy components, in hartrees:
   (A)  Total zero-electron terms....   20781.39713840298
   (B)    Nuclear-nuclear............   20778.03860474705
   (C)    Nuclear-solvent............       3.35853365594
   (E)  Total one-electron terms.....  -49089.40860935315
   (F)    Electron-nuclear...........  -54622.09865052015
   (G)    Electron-solvent...........      -3.39952309556
   (H)    Kinetic....................    5536.08956426256
   (I)  Total two-electron terms.....   22732.42480190247
   (J)    Coulomb....................   23383.69840163584
   (K)    Exchange+Correlation.......    -651.27359973337
   (L)  Electronic energy............  -26356.98380745068  (E+I)
   (N)  Total quantum mech. energy...   -5575.58666904770  (A+L)
   (O)  Gas phase energy.............   -5575.54699281502
   (P)  Solution phase energy........   -5575.56617432789  (Q+R+S)
   (Q)    Total solute energy........   -5575.54567960808  (N-C-G)
   (R)    Total solvent energy.......      -0.02049471981  (C/2+G/2)
   (S)    Solute cavity energy.......       0.00000000000
   (U)  Reorganization energy........       0.00131320694  (Q-O)
   (V)  Solvation energy.............      -0.01918151287  (P-O)
  
 SCFE:  Solution phase energy: DFT(m06-2x)      -5575.56617432789 hartrees
        SCF iterations:   2
  
 
 HOMO energy:    -0.26394
 LUMO energy:    -0.06188
 
  Orbital energies (hartrees): 
   -67.83083   -47.98083   -36.69395   -34.29627   -29.97226   -27.65700
   -27.12260   -26.29383   -24.23360   -23.37631   -22.90024   -22.45132
   -21.94244   -21.65601   -20.59878   -19.66999   -19.36380   -19.25849
   -18.00257   -17.90924   -17.73807   -17.47206   -17.21003   -15.97349
   -15.72785   -15.11351   -14.98464   -14.75287   -14.72033   -14.37926
   -13.99063   -13.53614   -12.23866   -12.08045   -12.06193   -11.95280
   -11.92143   -11.90596   -11.74156   -11.72469   -11.68856   -11.24039
   -11.17815   -10.99365   -10.94770   -10.91188   -10.89651   -10.87519
   -10.81114   -10.80979   -10.80623   -10.79218   -10.75930   -10.72212
   -10.62909   -10.61800   -10.60927   -10.58459   -10.56521   -10.54915
   -10.54531   -10.53518   -10.51320   -10.45505   -10.45451   -10.44450
   -10.44283   -10.43749   -10.40800   -10.38190   -10.35068   -10.34353
   -10.32836   -10.32263   -10.32133   -10.28509   -10.24724   -10.24556
   -10.21091   -10.19854   -10.11944   -10.11396   -10.08360   -10.07217
   -10.05183   -10.01813    -9.99522    -9.93904    -9.89267    -9.86712
    -9.75431    -9.74862    -9.71465    -9.54137    -9.53813    -9.48156
    -9.44180    -9.41501    -9.28355    -9.19713    -9.10117    -8.98229
    -8.97469    -8.53447    -8.44267    -7.88590    -7.70213    -7.56044
    -7.30464    -6.86404    -6.47827    -6.47733    -2.62978    -2.24051
    -1.40781    -1.33107    -1.08604    -1.03711    -1.02828    -1.00658
    -1.00581    -0.98377    -0.94915    -0.93375    -0.92482    -0.91305
    -0.89339    -0.88409    -0.87833    -0.87074    -0.85321    -0.84475
    -0.84293    -0.83842    -0.83138    -0.82446    -0.82244    -0.81096
    -0.80825    -0.79995    -0.79945    -0.78711    -0.78657    -0.78481
    -0.77493    -0.77475    -0.77286    -0.77154    -0.76991    -0.76966
    -0.76556    -0.76480    -0.76294    -0.76062    -0.75881    -0.75416
    -0.75291    -0.75273    -0.75213    -0.75174    -0.75129    -0.75087
    -0.74852    -0.74472    -0.74220    -0.74084    -0.73612    -0.72762
    -0.72633    -0.72617    -0.72328    -0.71657    -0.71137    -0.70524
    -0.70442    -0.69763    -0.69095    -0.68788    -0.68717    -0.66741
    -0.66740    -0.66713    -0.66363    -0.66202    -0.65895    -0.65760
    -0.65512    -0.65343    -0.65307    -0.65175    -0.64713    -0.64571
    -0.64329    -0.64287    -0.63890    -0.63793    -0.63517    -0.63087
    -0.62832    -0.62789    -0.62571    -0.62009    -0.61349    -0.61324
    -0.61284    -0.61184    -0.61065    -0.60546    -0.60303    -0.59982
    -0.59575    -0.59554    -0.59435    -0.59146    -0.58945    -0.58527
    -0.58404    -0.57946    -0.57811    -0.57809    -0.56890    -0.56734
    -0.56583    -0.56164    -0.56147    -0.56134    -0.56087    -0.55999
    -0.55866    -0.55712    -0.55608    -0.55530    -0.55391    -0.55387
    -0.55325    -0.55200    -0.55146    -0.55100    -0.54391    -0.54113
    -0.53645    -0.52943    -0.52858    -0.52577    -0.52151    -0.52116
    -0.51820    -0.51801    -0.51532    -0.51445    -0.51405    -0.51250
    -0.51164    -0.50976    -0.50975    -0.50867    -0.50695    -0.50477
    -0.50189    -0.50166    -0.49990    -0.49848    -0.49832    -0.49793
    -0.49712    -0.49675    -0.49595    -0.49487    -0.49384    -0.49133
    -0.48966    -0.48861    -0.48580    -0.48530    -0.48424    -0.48213
    -0.48046    -0.47525    -0.47513    -0.47439    -0.47371    -0.47340
    -0.47218    -0.46629    -0.46503    -0.46381    -0.46251    -0.46199
    -0.45921    -0.45808    -0.45390    -0.45364    -0.44967    -0.44839
    -0.44569    -0.44434    -0.44421    -0.44377    -0.44099    -0.44064
    -0.43786    -0.43776    -0.43503    -0.43356    -0.43160    -0.42800
    -0.42730    -0.42296    -0.42203    -0.42135    -0.41628    -0.41503
    -0.40711    -0.40595    -0.40459    -0.40409    -0.39583    -0.38657
    -0.37090    -0.37006    -0.35372    -0.34740    -0.34139    -0.33516
    -0.33245    -0.32223    -0.32062    -0.31345    -0.31110    -0.30814
    -0.30604    -0.30513    -0.30503    -0.29971    -0.29951    -0.29828
    -0.29292    -0.29157    -0.28903    -0.26394    -0.06188    -0.02788
    -0.02004    -0.00845    -0.00242     0.00836     0.01492     0.01836
     0.01940     0.02270
 
  Peak memory usage:   1029 Mb
  
  end of program scf
   
 Time(scf)  user:     2754.2  user+sys:     2754.2  wallclock:    10291.8
  
  start of program sole
  
    SCRF                   solvation energy
  iteration          Hartrees            kcal/mol
     0               0.0000000            0.0000
     1              -0.0180155          -11.3049
     2              -0.0191815          -12.0366
  
  solvation energy not yet converged... 
  
  Peak memory usage:    813 Mb
  
  end of program sole
   
 Time(sole)  user:        0.2  user+sys:        0.2  wallclock:        0.4
  
  start of program ch
  
  gridpoints used for charge fit        16617
    out of a possible maximum of        16617
  
   Electrostatic potential fitting constrained to reproduce
     total charge:                yes
     dipole moment:               no 
     traceless quadrupole moment: no 
     traceless octapole moment:   no 
  
  Atomic charges from electrostatic potential: 
   
 Atom       C1           C2           C3           C4           H5      
 Charge   -0.07967     -0.45628      0.15740     -0.00331      0.19189
   
 Atom       C6           C7           C8           C9           H10     
 Charge   -0.35547     -0.02650      0.08921     -0.01147      0.19989
   
 Atom       C11          C12          C13          C14          C15     
 Charge    0.04376      0.26072     -0.25783     -0.11752     -0.16531
   
 Atom       C16          H17          H18          H19          H20     
 Charge   -0.12819      0.15962      0.13941      0.15111      0.09974
   
 Atom       C21          C22          C23          C24          C25     
 Charge    0.15994      0.16417     -0.23074     -0.15359     -0.12584
   
 Atom       C26          H27          H28          H29          H30     
 Charge   -0.24350      0.15192      0.15434      0.14393      0.15760
   
 Atom       Si31         Si32         C33          C34          C35     
 Charge    0.04548      0.16992     -0.15135     -0.14854     -0.15932
   
 Atom       C36          C37          C38          H39          H40     
 Charge    0.09581     -0.20355     -0.11169      0.14020      0.13978
   
 Atom       H41          H42          H43          C44          C45     
 Charge    0.12699      0.11378      0.13644     -0.16641     -0.17584
   
 Atom       C46          C47          C48          C49          H50     
 Charge   -0.10411      0.16457     -0.30492     -0.05694      0.14861
   
 Atom       H51          H52          H53          H54          C55     
 Charge    0.14476      0.09232      0.15120      0.11066     -0.18485
   
 Atom       C56          C57          C58          C59          C60     
 Charge   -0.13981     -0.15519      0.06745     -0.15313     -0.07032
   
 Atom       H61          H62          H63          H64          H65     
 Charge    0.14113      0.13277      0.11796      0.09964      0.10613
   
 Atom       C66          C67          C68          C69          C70     
 Charge   -0.13439     -0.24697      0.00558      0.06472     -0.35027
   
 Atom       C71          H72          H73          H74          H75     
 Charge    0.02470      0.13096      0.15501      0.07880      0.20473
   
 Atom       H76          C77          C78          C79          C80     
 Charge    0.07529     -0.07691     -0.16647     -0.13814     -0.05675
   
 Atom       C81          C82          H83          H84          H85     
 Charge   -0.03982     -0.18957      0.11875      0.13791      0.13651
   
 Atom       H86          H87          C88          C89          C90     
 Charge    0.04456      0.12835     -0.11678     -0.18232     -0.05428
   
 Atom       C91          C92          C93          H94          H95     
 Charge   -0.05724     -0.14307     -0.13153      0.13389      0.14602
   
 Atom       H96          H97          H98          O99          O100    
 Charge    0.07924      0.12905      0.13214     -0.21829     -0.16945
   
 Atom       P101         O102         N103         H104         C105    
 Charge    0.77181     -0.48775     -0.41021      0.32635     -0.01301
   
 Atom       C106         C107         C108         C109         C110    
 Charge   -0.07613     -0.18365     -0.17893      0.28924     -0.16874
   
 Atom       C111         H112         H113         H114         H115    
 Charge   -0.16842      0.13913      0.16052      0.17752      0.14938
   
 Atom       H116         H117         N118         S119         O120    
 Charge    0.13862      0.14332     -0.44586      0.36433     -0.33749
   
 Atom       O121         C122         F123         F124         F125    
 Charge   -0.40399      0.49500     -0.12072     -0.13999     -0.14620
   
 Atom       C126         C127         C128         C129         N130    
 Charge    0.02091     -0.10600     -0.32089     -0.04771      0.02254
   
 Atom       H131         H132         H133         H134         H135    
 Charge    0.11153      0.16964      0.20620      0.16718      0.17216
   
 Atom       S136         O137         O138         C139         C140    
 Charge    0.59442     -0.41876     -0.42430     -0.48287      0.46528
   
 Atom       N141         C142         C143         C144         H145    
 Charge   -0.63387      0.61494     -0.49853      0.21676      0.21871
   
 Atom       H146         H147         H148    
 Charge    0.03924      0.23263      0.12367
  
  sum of atomic charges:    -0.000000
   
 RMS Error   1.01E-03 hartrees
 
  Peak memory usage:    816 Mb
  
  end of program ch
   
 Time(ch)  user:       19.6  user+sys:       19.6  wallclock:       75.4
  
  start of program post
  
  Writing input files for PBF
  Peak memory usage:    759 Mb
  
  end of program post
   
 Time(post)  user:        0.9  user+sys:        0.9  wallclock:        3.8

  start of program pbf

Pbf Version 4.10

Molecular surface area:      850.05353   [A2]
Reaction field energy:       -19.95649   [kT]
  Peak memory usage: 720 Mb

  end of program pbf

 Time(pbf)  user:       18.0  user+sys:       18.2  wallclock:       63.8
  
  start of program solv
  
   number of surface charges from PBF   13224
   sum of surface charges     -0.00032
   
  nuclear repulsion energy.......   20778.038604747 hartrees
  Peak memory usage:    894 Mb
  
  end of program solv
   
 Time(solv)  user:       37.7  user+sys:       37.7  wallclock:      145.7
  
  start of program scf
  
 Energy computed with NOPS off.
  
       i  u  d  i  g                   
       t  p  i  c  r                                 RMS    maximum
       e  d  i  u  i                       energy  density   DIIS  
       r  t  s  t  d       total energy    change  change    error 
  
etot    1  N  N  1  U   -5575.58698053642           5.2E-06  1.4E-04
etot    2  N  N  1  U   -5575.58696745686 -1.3E-05  0.0E+00  0.0E+00
  
  
 Energy components, in hartrees:
   (A)  Total zero-electron terms....   20781.45494897304
   (B)    Nuclear-nuclear............   20778.03860474705
   (C)    Nuclear-solvent............       3.41634422600
   (E)  Total one-electron terms.....  -49089.07356721345
   (F)    Electron-nuclear...........  -54621.69139186529
   (G)    Electron-solvent...........      -3.45754080705
   (H)    Kinetic....................    5536.07536545888
   (I)  Total two-electron terms.....   22732.03165078355
   (J)    Coulomb....................   23383.30410614004
   (K)    Exchange+Correlation.......    -651.27245535649
   (L)  Electronic energy............  -26357.04191642990  (E+I)
   (N)  Total quantum mech. energy...   -5575.58696745686  (A+L)
   (O)  Gas phase energy.............   -5575.54699281502
   (P)  Solution phase energy........   -5575.56636916633  (Q+R+S)
   (Q)    Total solute energy........   -5575.54577087581  (N-C-G)
   (R)    Total solvent energy.......      -0.02059829052  (C/2+G/2)
   (S)    Solute cavity energy.......       0.00000000000
   (U)  Reorganization energy........       0.00122193921  (Q-O)
   (V)  Solvation energy.............      -0.01937635131  (P-O)
  
 SCFE:  Solution phase energy: DFT(m06-2x)      -5575.56636916633 hartrees
        SCF iterations:   2
  
 
 HOMO energy:    -0.25555
 LUMO energy:    -0.06309
 
  Orbital energies (hartrees): 
   -90.18592   -90.15661   -78.21337   -67.01204   -67.00679   -25.29313
   -25.29280   -25.29035   -19.69173   -19.69107   -19.66212   -19.65894
   -19.63623   -19.62685   -19.60839   -14.82693   -14.81389   -14.80184
   -14.74452   -10.80898   -10.66637   -10.64230   -10.62897   -10.62339
   -10.61453   -10.60712   -10.59427   -10.59424   -10.59315   -10.58610
   -10.58317   -10.57453   -10.57204   -10.57072   -10.56835   -10.56763
   -10.56743   -10.56514   -10.56400   -10.56262   -10.56184   -10.56100
   -10.55999   -10.55930   -10.55686   -10.55384   -10.55378   -10.55347
   -10.55278   -10.55225   -10.55224   -10.55193   -10.55181   -10.55167
   -10.55143   -10.55114   -10.55051   -10.55046   -10.54967   -10.54963
   -10.54918   -10.54868   -10.54853   -10.54801   -10.54766   -10.54732
   -10.54692   -10.54652   -10.54616   -10.54598   -10.54580   -10.54570
   -10.54529   -10.54442   -10.54403   -10.54309   -10.54299   -10.54186
   -10.54171   -10.54086   -10.53984   -10.53923   -10.53715   -10.53587
   -10.53467   -10.53455   -10.53417   -10.53380   -10.53300   -10.53297
   -10.52947   -10.52342    -8.49596    -8.46535    -6.99276    -6.41827
    -6.41705    -6.41652    -6.38717    -6.38691    -6.38669    -5.54317
    -5.53806    -5.11139    -5.11008    -5.10863    -3.85301    -3.85255
    -3.85251    -3.84784    -3.84754    -3.84732    -1.45891    -1.36899
    -1.36634    -1.25519    -1.23325    -1.22172    -1.18802    -1.14083
    -1.10719    -1.10593    -1.09307    -1.09063    -1.07205    -0.99162
    -0.98213    -0.97220    -0.96762    -0.94649    -0.94368    -0.94154
    -0.93948    -0.93782    -0.93140    -0.92933    -0.92244    -0.91168
    -0.90807    -0.89131    -0.88687    -0.88100    -0.85424    -0.85157
    -0.84504    -0.84420    -0.83814    -0.83791    -0.83623    -0.83459
    -0.83316    -0.83167    -0.83079    -0.82846    -0.82823    -0.82733
    -0.82549    -0.82547    -0.82471    -0.82082    -0.81711    -0.81685
    -0.80158    -0.76287    -0.75796    -0.74574    -0.73294    -0.72037
    -0.71050    -0.70467    -0.70179    -0.69934    -0.69086    -0.68583
    -0.68320    -0.68151    -0.68020    -0.67939    -0.67648    -0.67471
    -0.67376    -0.67262    -0.67072    -0.66895    -0.66769    -0.66395
    -0.66277    -0.66215    -0.66113    -0.65937    -0.65675    -0.65323
    -0.65161    -0.64117    -0.63685    -0.62720    -0.61554    -0.61130
    -0.60946    -0.60246    -0.60030    -0.58813    -0.58516    -0.58204
    -0.58081    -0.57900    -0.57777    -0.57649    -0.57445    -0.57122
    -0.56960    -0.56442    -0.56039    -0.55968    -0.55493    -0.55142
    -0.54814    -0.54498    -0.54220    -0.53860    -0.53791    -0.53364
    -0.53089    -0.52805    -0.52777    -0.52409    -0.52231    -0.51916
    -0.51711    -0.51655    -0.51557    -0.51358    -0.51167    -0.51008
    -0.50931    -0.50764    -0.50342    -0.50319    -0.50234    -0.50164
    -0.49993    -0.49957    -0.49917    -0.49783    -0.49641    -0.49535
    -0.49507    -0.49358    -0.49258    -0.49139    -0.48986    -0.48708
    -0.48464    -0.48347    -0.48157    -0.48059    -0.47953    -0.47752
    -0.47597    -0.47211    -0.46923    -0.46618    -0.46572    -0.46373
    -0.45753    -0.45571    -0.45396    -0.44926    -0.44863    -0.44704
    -0.44514    -0.44404    -0.43906    -0.43861    -0.43336    -0.43196
    -0.42805    -0.42662    -0.42475    -0.42403    -0.42347    -0.42005
    -0.41978    -0.41767    -0.41435    -0.41190    -0.40971    -0.40730
    -0.40209    -0.40070    -0.39914    -0.39814    -0.39525    -0.39456
    -0.39168    -0.38994    -0.38988    -0.38856    -0.38800    -0.38721
    -0.38444    -0.38221    -0.37989    -0.37846    -0.37664    -0.36990
    -0.36946    -0.36368    -0.35746    -0.35444    -0.35111    -0.34729
    -0.34669    -0.34431    -0.34188    -0.34020    -0.33508    -0.33180
    -0.33084    -0.32842    -0.32547    -0.31987    -0.30879    -0.30546
    -0.30421    -0.30298    -0.30076    -0.29795    -0.29626    -0.29436
    -0.29285    -0.29030    -0.28931    -0.28724    -0.28703    -0.28517
    -0.28211    -0.28033    -0.27428    -0.25555    -0.06309    -0.02876
    -0.02052    -0.00891    -0.00293     0.00778     0.01435     0.01760
     0.01885     0.02234
 
  Peak memory usage:   1029 Mb
  
  end of program scf
   
 Time(scf)  user:     2739.8  user+sys:     2739.8  wallclock:     9498.8
  
  start of program sole
  
    SCRF                   solvation energy
  iteration          Hartrees            kcal/mol
     0               0.0000000            0.0000
     1              -0.0180155          -11.3049
     2              -0.0191815          -12.0366
     3              -0.0193764          -12.1588
  
  solvation energy not yet converged... 
  
  Peak memory usage:    813 Mb
  
  end of program sole
   
 Time(sole)  user:        0.2  user+sys:        0.2  wallclock:        0.4
  
  start of program ch
  
[...]
       t  p  i  c  r                                 RMS    maximum
       e  d  i  u  i                       energy  density   DIIS  
       r  t  s  t  d       total energy    change  change    error 
  
etot    1  N  N  1  U   -5575.58699489792           1.4E-05  4.1E-04
etot    2  N  Y  1  U   -5575.58686952508 -1.3E-04  9.0E-06  7.4E-04
etot    3  N  Y  1  U   -5575.58705472622  1.9E-04  2.2E-07  1.1E-05
etot    4  N  N  1  U   -5575.58705483147  1.1E-07  0.0E+00  0.0E+00
  
  
 Energy components, in hartrees:
   (A)  Total zero-electron terms....   20781.47805048459
   (B)    Nuclear-nuclear............   20778.03860474705
   (C)    Nuclear-solvent............       3.43944573755
   (E)  Total one-electron terms.....  -49089.35873957728
   (F)    Electron-nuclear...........  -54621.95888030788
   (G)    Electron-solvent...........      -3.48079743155
   (H)    Kinetic....................    5536.08093816214
   (I)  Total two-electron terms.....   22732.29363426122
   (J)    Coulomb....................   23383.56648340645
   (K)    Exchange+Correlation.......    -651.27284914523
   (L)  Electronic energy............  -26357.06510531606  (E+I)
   (N)  Total quantum mech. energy...   -5575.58705483147  (A+L)
   (O)  Gas phase energy.............   -5575.54699281502
   (P)  Solution phase energy........   -5575.56637898447  (Q+R+S)
   (Q)    Total solute energy........   -5575.54570313747  (N-C-G)
   (R)    Total solvent energy.......      -0.02067584700  (C/2+G/2)
   (S)    Solute cavity energy.......       0.00000000000
   (U)  Reorganization energy........       0.00128967756  (Q-O)
   (V)  Solvation energy.............      -0.01938616944  (P-O)
  
 SCFE:  Solution phase energy: DFT(m06-2x)      -5575.56637898447 hartrees
        SCF iterations:   4
  
 
 HOMO energy:    -0.25528
 LUMO energy:    -0.06235
 
  Orbital energies (hartrees): 
   -90.18436   -90.15595   -78.21251   -67.01118   -67.00595   -25.29288
   -25.29281   -25.29013   -19.69077   -19.69014   -19.66173   -19.66019
   -19.63547   -19.62688   -19.60825   -14.82406   -14.81337   -14.79947
   -14.74325   -10.80877   -10.66386   -10.64043   -10.62790   -10.62217
   -10.61424   -10.60863   -10.59526   -10.59428   -10.59180   -10.58709
   -10.58153   -10.57396   -10.57197   -10.57054   -10.56782   -10.56697
   -10.56686   -10.56510   -10.56455   -10.56261   -10.56199   -10.56078
   -10.56050   -10.55990   -10.55659   -10.55476   -10.55407   -10.55359
   -10.55295   -10.55233   -10.55220   -10.55174   -10.55171   -10.55168
   -10.55127   -10.55116   -10.55100   -10.55070   -10.55000   -10.54976
   -10.54952   -10.54859   -10.54816   -10.54774   -10.54756   -10.54741
   -10.54730   -10.54657   -10.54654   -10.54611   -10.54606   -10.54535
   -10.54530   -10.54476   -10.54349   -10.54219   -10.54187   -10.54126
   -10.54095   -10.53987   -10.53961   -10.53933   -10.53637   -10.53593
   -10.53466   -10.53428   -10.53346   -10.53325   -10.53222   -10.53183
   -10.52836   -10.52253    -8.49450    -8.46470    -6.99192    -6.41680
    -6.41559    -6.41505    -6.38652    -6.38625    -6.38604    -5.54233
    -5.53724    -5.11054    -5.10924    -5.10778    -3.85217    -3.85170
    -3.85166    -3.84702    -3.84671    -3.84650    -1.45871    -1.36883
    -1.36610    -1.25452    -1.23245    -1.22110    -1.18715    -1.14047
    -1.10667    -1.10567    -1.09195    -1.09015    -1.07028    -0.99085
    -0.98180    -0.97188    -0.96747    -0.94631    -0.94355    -0.94126
    -0.93922    -0.93770    -0.93144    -0.92905    -0.92227    -0.91146
    -0.90738    -0.89099    -0.88678    -0.88047    -0.85410    -0.85145
    -0.84477    -0.84393    -0.83799    -0.83765    -0.83599    -0.83449
    -0.83296    -0.83136    -0.83054    -0.82832    -0.82795    -0.82712
    -0.82527    -0.82518    -0.82445    -0.82054    -0.81683    -0.81619
    -0.80131    -0.76234    -0.75736    -0.74538    -0.73251    -0.71972
    -0.71012    -0.70437    -0.70145    -0.69899    -0.69056    -0.68565
    -0.68296    -0.68131    -0.67999    -0.67913    -0.67628    -0.67452
    -0.67362    -0.67238    -0.67034    -0.66866    -0.66743    -0.66377
    -0.66252    -0.66178    -0.66077    -0.65913    -0.65624    -0.65299
    -0.65131    -0.64086    -0.63650    -0.62674    -0.61507    -0.61064
    -0.60915    -0.60220    -0.60002    -0.58764    -0.58476    -0.58182
    -0.58069    -0.57887    -0.57749    -0.57620    -0.57430    -0.57089
    -0.56932    -0.56417    -0.56018    -0.55946    -0.55450    -0.55102
    -0.54777    -0.54457    -0.54187    -0.53825    -0.53762    -0.53326
    -0.53061    -0.52768    -0.52738    -0.52387    -0.52207    -0.51883
    -0.51696    -0.51642    -0.51529    -0.51327    -0.51147    -0.50968
    -0.50909    -0.50740    -0.50320    -0.50287    -0.50200    -0.50124
    -0.49972    -0.49939    -0.49894    -0.49755    -0.49618    -0.49517
    -0.49494    -0.49342    -0.49243    -0.49121    -0.48947    -0.48680
    -0.48451    -0.48335    -0.48134    -0.48042    -0.47928    -0.47729
    -0.47571    -0.47182    -0.46898    -0.46613    -0.46570    -0.46344
    -0.45730    -0.45552    -0.45373    -0.44900    -0.44846    -0.44658
    -0.44490    -0.44386    -0.43864    -0.43829    -0.43297    -0.43173
    -0.42787    -0.42629    -0.42462    -0.42371    -0.42311    -0.41984
    -0.41950    -0.41740    -0.41407    -0.41167    -0.40934    -0.40697
    -0.40188    -0.40040    -0.39882    -0.39760    -0.39505    -0.39443
    -0.39128    -0.38973    -0.38965    -0.38821    -0.38775    -0.38696
    -0.38414    -0.38180    -0.37961    -0.37806    -0.37632    -0.36964
    -0.36911    -0.36321    -0.35704    -0.35351    -0.35066    -0.34694
    -0.34637    -0.34387    -0.34144    -0.33980    -0.33468    -0.33121
    -0.33029    -0.32816    -0.32507    -0.31944    -0.30868    -0.30526
    -0.30405    -0.30275    -0.30066    -0.29759    -0.29604    -0.29397
    -0.29256    -0.29009    -0.28903    -0.28694    -0.28676    -0.28490
    -0.28156    -0.27997    -0.27408    -0.25528    -0.06235    -0.02826
    -0.02026    -0.00866    -0.00266     0.00809     0.01464     0.01798
     0.01913     0.02255
 
  Peak memory usage:   1029 Mb
  
  end of program scf
   
 Time(scf)  user:     7967.1  user+sys:     7967.1  wallclock:    15006.2
  
  start of program sole
  
    SCRF                   solvation energy
  iteration          Hartrees            kcal/mol
     0               0.0000000            0.0000
     1              -0.0180155          -11.3049
     2              -0.0191815          -12.0366
     3              -0.0193764          -12.1588
     4              -0.0192043          -12.0509
     5              -0.0193862          -12.1650
  
  solvation energy not yet converged... 
  
  Peak memory usage:    813 Mb
  
  end of program sole
   
 Time(sole)  user:        0.1  user+sys:        0.1  wallclock:        0.1
  
  start of program ch
  
  gridpoints used for charge fit        16617
    out of a possible maximum of        16617
  
   Electrostatic potential fitting constrained to reproduce
     total charge:                yes
     dipole moment:               no 
     traceless quadrupole moment: no 
     traceless octapole moment:   no 
  
  Atomic charges from electrostatic potential: 
   
 Atom       C1           C2           C3           C4           H5      
 Charge   -0.07930     -0.45655      0.15793     -0.00319      0.19178
   
 Atom       C6           C7           C8           C9           H10     
 Charge   -0.35599     -0.02584      0.08985     -0.01172      0.19980
   
 Atom       C11          C12          C13          C14          C15     
 Charge    0.04341      0.26073     -0.25782     -0.11790     -0.16589
   
 Atom       C16          H17          H18          H19          H20     
 Charge   -0.12769      0.15965      0.13959      0.15131      0.09954
   
 Atom       C21          C22          C23          C24          C25     
 Charge    0.15991      0.16426     -0.23065     -0.15393     -0.12624
   
 Atom       C26          H27          H28          H29          H30     
 Charge   -0.24355      0.15184      0.15448      0.14409      0.15764
   
 Atom       Si31         Si32         C33          C34          C35     
 Charge    0.04571      0.17001     -0.15168     -0.14879     -0.15942
   
 Atom       C36          C37          C38          H39          H40     
 Charge    0.09637     -0.20331     -0.11191      0.14032      0.13989
   
 Atom       H41          H42          H43          C44          C45     
 Charge    0.12689      0.11362      0.13651     -0.16650     -0.17610
   
 Atom       C46          C47          C48          C49          H50     
 Charge   -0.10417      0.16494     -0.30467     -0.05732      0.14861
   
 Atom       H51          H52          H53          H54          C55     
 Charge    0.14477      0.09217      0.15132      0.11076     -0.18551
   
 Atom       C56          C57          C58          C59          C60     
 Charge   -0.14005     -0.15509      0.06809     -0.15297     -0.07024
   
 Atom       H61          H62          H63          H64          H65     
 Charge    0.14129      0.13288      0.11776      0.09958      0.10593
   
 Atom       C66          C67          C68          C69          C70     
 Charge   -0.13379     -0.24792      0.00554      0.06497     -0.35030
   
 Atom       C71          H72          H73          H74          H75     
 Charge    0.02452      0.13072      0.15521      0.07869      0.20479
   
 Atom       H76          C77          C78          C79          C80     
 Charge    0.07524     -0.07714     -0.16661     -0.13797     -0.05633
   
 Atom       C81          C82          H83          H84          H85     
 Charge   -0.03943     -0.19026      0.11881      0.13793      0.13638
   
 Atom       H86          H87          C88          C89          C90     
 Charge    0.04464      0.12850     -0.11718     -0.18239     -0.05440
   
 Atom       C91          C92          C93          H94          H95     
 Charge   -0.05658     -0.14286     -0.13187      0.13403      0.14608
   
 Atom       H96          H97          H98          O99          O100    
 Charge    0.07914      0.12892      0.13222     -0.21837     -0.16972
   
 Atom       P101         O102         N103         H104         C105    
 Charge    0.77295     -0.48835     -0.40921      0.32625     -0.01306
   
 Atom       C106         C107         C108         C109         C110    
 Charge   -0.07668     -0.18460     -0.17810      0.29063     -0.16871
   
 Atom       C111         H112         H113         H114         H115    
 Charge   -0.16916      0.13940      0.16075      0.17732      0.14939
   
 Atom       H116         H117         N118         S119         O120    
 Charge    0.13863      0.14351     -0.44555      0.36381     -0.33762
   
 Atom       O121         C122         F123         F124         F125    
 Charge   -0.40383      0.49486     -0.12066     -0.13999     -0.14636
   
 Atom       C126         C127         C128         C129         N130    
 Charge    0.02122     -0.10525     -0.32227     -0.04885      0.02170
   
 Atom       H131         H132         H133         H134         H135    
 Charge    0.11225      0.16957      0.20668      0.16745      0.17259
   
 Atom       S136         O137         O138         C139         C140    
 Charge    0.59581     -0.41960     -0.42539     -0.48362      0.46514
   
 Atom       N141         C142         C143         C144         H145    
 Charge   -0.63289      0.61531     -0.49826      0.21554      0.21905
   
 Atom       H146         H147         H148    
 Charge    0.03912      0.23250      0.12416
  
  sum of atomic charges:    -0.000000
   
 RMS Error   1.01E-03 hartrees
 
  Peak memory usage:    816 Mb
  
  end of program ch
   
 Time(ch)  user:       17.7  user+sys:       17.7  wallclock:       20.1
  
  start of program post
  
  Writing input files for PBF
  Peak memory usage:    759 Mb
  
  end of program post
   
 Time(post)  user:        0.7  user+sys:        0.7  wallclock:        1.0

  start of program pbf

Pbf Version 4.10

Molecular surface area:      850.05353   [A2]
Reaction field energy:       -19.94466   [kT]
  Peak memory usage: 720 Mb

  end of program pbf

 Time(pbf)  user:       16.4  user+sys:       16.5  wallclock:       17.4
  
  start of program solv
  
   number of surface charges from PBF   13224
   sum of surface charges     -0.00032
   
  nuclear repulsion energy.......   20778.038604747 hartrees
  Peak memory usage:    894 Mb
  
  end of program solv
   
 Time(solv)  user:       34.6  user+sys:       34.6  wallclock:       36.1
  
  start of program scf
  
 Energy computed with NOPS off.
  
       i  u  d  i  g                   
       t  p  i  c  r                                 RMS    maximum
       e  d  i  u  i                       energy  density   DIIS  
       r  t  s  t  d       total energy    change  change    error 
  
etot    1  N  N  1  U   -5575.58697930648           6.8E-07  1.8E-05
etot    2  N  N  1  U   -5575.58697913641 -1.7E-07  0.0E+00  0.0E+00
  
  
 Energy components, in hartrees:
   (A)  Total zero-electron terms....   20781.44757387775
   (B)    Nuclear-nuclear............   20778.03860474705
   (C)    Nuclear-solvent............       3.40896913070
   (E)  Total one-electron terms.....  -49089.29282545759
   (F)    Electron-nuclear...........  -54621.92295927299
   (G)    Electron-solvent...........      -3.45022256258
   (H)    Kinetic....................    5536.08035637798
   (I)  Total two-electron terms.....   22732.25827244343
   (J)    Coulomb....................   23383.53103901302
   (K)    Exchange+Correlation.......    -651.27276656959
   (L)  Electronic energy............  -26357.03455301416  (E+I)
   (N)  Total quantum mech. energy...   -5575.58697913641  (A+L)
   (O)  Gas phase energy.............   -5575.54699281502
   (P)  Solution phase energy........   -5575.56635242047  (Q+R+S)
   (Q)    Total solute energy........   -5575.54572570453  (N-C-G)
   (R)    Total solvent energy.......      -0.02062671594  (C/2+G/2)
   (S)    Solute cavity energy.......       0.00000000000
   (U)  Reorganization energy........       0.00126711049  (Q-O)
   (V)  Solvation energy.............      -0.01935960545  (P-O)
  
 SCFE:  Solution phase energy: DFT(m06-2x)      -5575.56635242047 hartrees
        SCF iterations:   2
  
 
 HOMO energy:    -0.25529
 LUMO energy:    -0.06241
 
  Orbital energies (hartrees): 
   -90.18448   -90.15594   -78.21250   -67.01118   -67.00601   -25.29285
   -25.29278   -25.29010   -19.69073   -19.69016   -19.66186   -19.66011
   -19.63552   -19.62694   -19.60829   -14.82422   -14.81333   -14.79978
   -14.74318   -10.80874   -10.66403   -10.64064   -10.62793   -10.62213
   -10.61428   -10.60850   -10.59513   -10.59425   -10.59190   -10.58695
   -10.58169   -10.57397   -10.57199   -10.57057   -10.56783   -10.56700
   -10.56699   -10.56500   -10.56468   -10.56264   -10.56202   -10.56081
   -10.56049   -10.55984   -10.55667   -10.55471   -10.55405   -10.55361
   -10.55290   -10.55234   -10.55221   -10.55172   -10.55170   -10.55169
   -10.55127   -10.55109   -10.55091   -10.55066   -10.54995   -10.54970
   -10.54945   -10.54857   -10.54818   -10.54775   -10.54751   -10.54744
   -10.54724   -10.54652   -10.54648   -10.54609   -10.54599   -10.54539
   -10.54529   -10.54472   -10.54347   -10.54217   -10.54185   -10.54129
   -10.54097   -10.53996   -10.53961   -10.53928   -10.53642   -10.53591
   -10.53463   -10.53429   -10.53340   -10.53325   -10.53231   -10.53185
   -10.52844   -10.52256    -8.49461    -8.46470    -6.99190    -6.41691
    -6.41570    -6.41517    -6.38652    -6.38625    -6.38603    -5.54232
    -5.53730    -5.11053    -5.10923    -5.10777    -3.85217    -3.85170
    -3.85166    -3.84708    -3.84677    -3.84656    -1.45868    -1.36880
    -1.36607    -1.25459    -1.23244    -1.22111    -1.18714    -1.14052
    -1.10669    -1.10567    -1.09208    -1.09016    -1.07040    -0.99084
    -0.98181    -0.97192    -0.96748    -0.94629    -0.94354    -0.94124
    -0.93920    -0.93769    -0.93143    -0.92904    -0.92226    -0.91146
    -0.90745    -0.89101    -0.88681    -0.88052    -0.85410    -0.85148
    -0.84477    -0.84392    -0.83797    -0.83764    -0.83601    -0.83448
    -0.83294    -0.83135    -0.83053    -0.82831    -0.82794    -0.82710
    -0.82526    -0.82517    -0.82445    -0.82054    -0.81683    -0.81624
    -0.80132    -0.76233    -0.75741    -0.74541    -0.73251    -0.71977
    -0.71012    -0.70437    -0.70149    -0.69899    -0.69056    -0.68562
    -0.68293    -0.68132    -0.67997    -0.67912    -0.67627    -0.67452
    -0.67361    -0.67237    -0.67037    -0.66865    -0.66742    -0.66376
    -0.66252    -0.66181    -0.66077    -0.65913    -0.65628    -0.65299
    -0.65131    -0.64087    -0.63651    -0.62674    -0.61512    -0.61068
    -0.60914    -0.60220    -0.60002    -0.58764    -0.58479    -0.58182
    -0.58067    -0.57886    -0.57749    -0.57621    -0.57429    -0.57091
    -0.56932    -0.56415    -0.56016    -0.55945    -0.55455    -0.55103
    -0.54776    -0.54460    -0.54188    -0.53826    -0.53762    -0.53327
    -0.53061    -0.52768    -0.52739    -0.52386    -0.52206    -0.51882
    -0.51694    -0.51641    -0.51529    -0.51327    -0.51147    -0.50970
    -0.50909    -0.50740    -0.50319    -0.50287    -0.50201    -0.50127
    -0.49972    -0.49939    -0.49893    -0.49758    -0.49616    -0.49516
    -0.49494    -0.49342    -0.49242    -0.49121    -0.48951    -0.48680
    -0.48449    -0.48335    -0.48134    -0.48042    -0.47927    -0.47727
    -0.47570    -0.47182    -0.46897    -0.46614    -0.46570    -0.46344
    -0.45734    -0.45553    -0.45372    -0.44899    -0.44845    -0.44661
    -0.44490    -0.44386    -0.43865    -0.43833    -0.43300    -0.43173
    -0.42786    -0.42629    -0.42462    -0.42372    -0.42310    -0.41983
    -0.41951    -0.41741    -0.41407    -0.41170    -0.40934    -0.40699
    -0.40188    -0.40041    -0.39882    -0.39765    -0.39504    -0.39442
    -0.39130    -0.38973    -0.38964    -0.38823    -0.38775    -0.38695
    -0.38413    -0.38181    -0.37960    -0.37807    -0.37632    -0.36965
    -0.36913    -0.36322    -0.35705    -0.35361    -0.35068    -0.34695
    -0.34639    -0.34386    -0.34144    -0.33982    -0.33469    -0.33121
    -0.33029    -0.32818    -0.32507    -0.31949    -0.30870    -0.30526
    -0.30403    -0.30273    -0.30066    -0.29757    -0.29602    -0.29396
    -0.29256    -0.29008    -0.28901    -0.28694    -0.28676    -0.28490
    -0.28161    -0.27997    -0.27408    -0.25529    -0.06241    -0.02830
    -0.02026    -0.00867    -0.00265     0.00808     0.01465     0.01800
     0.01914     0.02253
 
  Peak memory usage:   1029 Mb
  
  end of program scf
   
 Time(scf)  user:     2236.4  user+sys:     2236.4  wallclock:     2277.3
  
  start of program sole
  
    SCRF                   solvation energy
  iteration          Hartrees            kcal/mol
     0               0.0000000            0.0000
     1              -0.0180155          -11.3049
     2              -0.0191815          -12.0366
     3              -0.0193764          -12.1588
     4              -0.0192043          -12.0509
     5              -0.0193862          -12.1650
     6              -0.0193596          -12.1483
  
  stopping: solvation energy converged
  
  iterations:   6    sfinal:    -12.1483 kcal/mol
  
  Peak memory usage:    813 Mb
  
  end of program sole
   
 Time(sole)  user:        0.1  user+sys:        0.1  wallclock:        0.1
  
  start of program post
  
  Writing input files for PBF
  Peak memory usage:    759 Mb
  
  end of program post
   
 Time(post)  user:        0.7  user+sys:        0.7  wallclock:        0.9

 Total cpu seconds     user:   67903.329   user+sys:   67903.329
  
 Total elapsed time:    248969 seconds

Job Type-II-Z-sulfonyl-bind-1-scan-unrestrained-SPE completed on tethys at Fri Mar 17 13:43:09 2017
