Job Toru-SiPh3-NTf-Type-I-E-4-chkp-scan-unrestrained-uff-acc-sol-SPE started on tethys at Mon Nov 14 14:17:38 2016
jobid: tethys-0-5829c781

  +--------------------------------------------------------------------+
  |  Jaguar version 8.4, release  16                                   |
  |                                                                    |
  |  Copyright Schrodinger, Inc.                                       |
  |  All Rights Reserved.                                              |
  |                                                                    |
  |  The following have contributed to Jaguar (listed alphabetically): |
  |  Mike Beachy, Art Bochevarov, Dale Braden, Yixiang Cao,            |
  |  Chris Cortis, Rich Friesner, Bill Goddard, Hod Greeley,           |
  |  Tom Hughes, Jean-Marc Langlois, Daniel Mainz, Rob Murphy,         |
  |  Dean Philipp, Tom Pollard, Murco Ringnalda.                       |
  |                                                                    |
  |  Use of this program should be acknowledged in publications as:    |
  |                                                                    |
  |  Jaguar, version 8.4, Schrodinger, Inc., New York, NY, 2013.       |
  |                                                                    |
  |  A. D. Bochevarov, E. Harder, T. F. Hughes, J. R. Greenwood,       |
  |  D. A. Braden, D. M. Philipp, D. Rinaldo, M. D. Halls,             |
  |  J. Zhang, R. A. Friesner, "Jaguar: A High-Performance Quantum     |
  |  Chemistry Software Program with Strengths in Life and Materials   |
  |  Sciences", Int. J. Quantum Chem., 2013, 113(18), 2110-2142.       |
  +--------------------------------------------------------------------+
  
  start of program pre
  
  Job name: Toru-SiPh3-NTf-Type-I-E-4-chkp-scan-unrestrained-uff-acc-sol-SPE
  Executables used: /usr/local/shared/schrodinger/current/jaguar-v84016/bin/Linux-x86_64
  Temporary files : /home/ab2144/.schrodinger/tmp/Toru-SiPh3-NTf-Type-I-E-4-chkp-scan-unrestrained-uff-acc-sol-SPE
  Maestro file (input):  Toru-SiPh3-NTf-Type-I-E-4-chkp-scan-unrestrained-uff-acc-sol-SPE.mae
  Maestro file (output): Toru-SiPh3-NTf-Type-I-E-4-chkp-scan-unrestrained-uff-acc-sol-SPE.01.mae
  
  
  basis set:             6-31g**         
  net molecular charge:    0
  multiplicity:            1
  
  keygrid settings 
    wispc.....   7.500E-01
    ldens.....   0
    denspc....   7.500E-01
  
   grid     daf set  nls  grid set  Q type
  ------    -------  ---  --------  ------
  coarse       1      1       1        1
  medium       2      2       2        1
  fine         3      2       3        0
  ultrafine    4      2       4        1
  charge       0      1      -1        1
  gradient     5      2       4        1
  density      0      1       0        0
  DFT-fine     0      1     -13        0
  DFT-med.     0      1     -13        0
  DFT-grad     0      1     -13        0
  DFT-der2     0      1       0        0
  DFT-cphf     0      1       0        0
  LMP2-enrg    4      2       4        1
  LMP2-grad    5      2       2        1
  DFT-cphf2    0      1       0        0
  PBF-dens     0      1       0        0
  plotting     0      1       0        0
  
  idftgrdm  100
  ndftgrdm   50    0    0
  idftgrdf  111
  ndftgrdf   85    0    0
  idftgrdg  111
  ndftgrdg   80    3    0
  idftgrdu  433
  ndftgrdu  105    0    0
  idftgrdd  433
  ndftgrdd  105    0    0
  idftgrdc  433
  ndftgrdc   26    0    0
  idftgrdp  433
  ndftgrdp   18    0    0
  
  number of basis functions....         1680
  
 Input geometry:
                                   angstroms
  atom               x                 y                 z
  C1           -2.4872000000      5.2908000000     -0.0295000000 
  C2           -2.9608000000      3.8794000000     -0.1157000000 
  C3           -3.3336000000      6.2716000000      0.3050000000 
  C4           -4.2431000000      3.6046000000      0.2066000000 
  C5           -2.0423000000      2.7615000000     -0.5007000000 
  C6           -5.1738000000      4.6989000000      0.5702000000 
  C7           -4.7108000000      2.2095000000      0.2542000000 
  C8           -4.7427000000      5.9634000000      0.6088000000 
  C9           -2.4592000000      1.4791000000     -0.3789000000 
  C10          -0.6526000000      3.0524000000     -0.9359000000 
  C11          -3.8760000000      1.1931000000     -0.0095000000 
  O12          -1.6336000000      0.4438000000     -0.7458000000 
  Si13         -4.4838000000     -0.5508000000      0.2678000000 
  C14          -0.3748000000      3.8513000000     -1.9898000000 
  C15           0.4577000000      2.5588000000     -0.0773000000 
  C16           1.0035000000      4.3708000000     -2.1661000000 
  C17          -1.4000000000      4.2734000000     -2.9758000000 
  C18           1.9565000000      4.0699000000     -1.2735000000 
  C19           1.2814000000      5.2646000000     -3.3078000000 
  C20           1.6738000000      3.1443000000     -0.1479000000 
  Si21          3.0703000000      2.7575000000      1.0453000000 
  O22           0.2073000000      1.5623000000      0.8301000000 
  C23          -1.0751000000      5.0893000000     -3.9856000000 
  C24           0.3030000000      5.5990000000     -4.1566000000 
  P25          -0.3438000000      0.1404000000      0.2210000000 
  O26          -0.6820000000     -0.6905000000      1.4239000000 
  N27           0.7129000000     -0.6367000000     -0.7405000000 
  C28          -3.9694000000     -1.0764000000      1.9853000000 
  C29          -6.3526000000     -0.5533000000      0.1421000000 
  C30          -3.8241000000     -1.7009000000     -1.0468000000 
  C31           3.9315000000      1.2191000000      0.4485000000 
  C32           4.3054000000      4.1527000000      0.9645000000 
  C33           2.4458000000      2.6023000000      2.8080000000 
  C34          -4.2589000000     -2.3080000000      2.4409000000 
  C35          -3.2972000000     -0.1094000000      2.8899000000 
  C36          -7.1272000000     -1.0167000000      1.1402000000 
  C37          -7.0029000000      0.0148000000     -1.0662000000 
  C38          -3.1179000000     -2.7994000000     -0.7260000000 
  C39          -4.1399000000     -1.4396000000     -2.4728000000 
  C40           4.2721000000      0.2288000000      1.2880000000 
  C41           4.3133000000      1.1202000000     -0.9807000000 
  C42           3.8936000000      5.4298000000      1.0514000000 
  C43           5.7514000000      3.8654000000      0.7959000000 
  C44           2.6269000000      3.5933000000      3.7002000000 
  C45           1.7384000000      1.3727000000      3.2430000000 
  C46          -3.9213000000     -2.6904000000      3.8271000000 
  C47          -3.3286000000     -1.8089000000      4.6402000000 
  C48          -2.9923000000     -0.4593000000      4.1454000000 
  C49          -8.5995000000     -1.0070000000      1.0117000000 
  C50          -9.1742000000     -0.5180000000     -0.0921000000 
  C51          -8.3366000000      0.0266000000     -1.1775000000 
  C52          -2.7342000000     -3.7727000000     -1.7703000000 
  C53          -3.0779000000     -3.5599000000     -3.0450000000 
  C54          -3.8039000000     -2.3292000000     -3.4153000000 
  C55           4.9437000000     -0.9850000000      0.7755000000 
  C56           5.2456000000     -1.0870000000     -0.5236000000 
  C57           4.9303000000      0.0250000000     -1.4415000000 
  C58           4.8706000000      6.5352000000      0.9754000000 
  C59           6.1725000000      6.2695000000      0.8198000000 
  C60           6.6340000000      4.8698000000      0.7269000000 
  C61           2.0989000000      3.4704000000      5.0758000000 
  C62           1.4400000000      2.3673000000      5.4468000000 
  C63           1.2546000000      1.2647000000      4.4856000000 
  C64           3.8395000000     -4.3757000000      3.7782000000 
  C65           3.0746000000     -4.7319000000      2.6732000000 
  C66           2.3037000000     -3.7719000000      1.9930000000 
  C67           2.2856000000     -2.4504000000      2.4627000000 
  C68           3.0323000000     -2.1062000000      3.5909000000 
  C69           3.8144000000     -3.0587000000      4.2424000000 
  C70           1.5384000000     -4.2474000000      0.8243000000 
  N71           1.4304000000     -3.5407000000     -0.3428000000 
  S72           1.3243000000     -4.4232000000     -1.8200000000 
  O73           1.0539000000     -5.8075000000     -1.4193000000 
  O74           0.4289000000     -3.7139000000     -2.7225000000 
  C75           3.0198000000     -4.3117000000     -2.4507000000 
  C76           3.2587000000     -3.6833000000     -3.6673000000 
  C77           4.5863000000     -3.6513000000     -4.0956000000 
  C78           5.5701000000     -4.2308000000     -3.2971000000 
  C79           5.1968000000     -4.8254000000     -2.0889000000 
  N80           3.9303000000     -4.8703000000     -1.6636000000 
  N81          -0.6660000000     -3.2341000000      2.1335000000 
  C82          -0.5835000000     -3.3787000000      3.4553000000 
  C83          -0.3974000000     -4.7434000000      3.7770000000 
  C84          -0.3363000000     -5.4244000000      2.5760000000 
  C85          -0.4008000000     -4.4635000000      1.5183000000 
  H86          -1.4524000000      5.5432000000     -0.2141000000 
  H87          -2.9826000000      7.2936000000      0.3675000000 
  H88          -6.2068000000      4.4781000000      0.8091000000 
  H89          -5.7280000000      2.0227000000      0.5727000000 
  H90          -5.4227000000      6.7618000000      0.8765000000 
  H91          -2.4182000000      3.9124000000     -2.9049000000 
  H92           2.9552000000      4.4651000000     -1.4082000000 
  H93           2.2784000000      5.6596000000     -3.4626000000 
  H94          -1.8344000000      5.3814000000     -4.6998000000 
  H95           0.5203000000      6.2569000000     -4.9882000000 
  H96          -4.7684000000     -3.0262000000      1.8106000000 
  H97          -3.0467000000      0.8852000000      2.5468000000 
  H98          -6.7028000000     -1.3998000000      2.0545000000 
  H99          -6.4094000000      0.4626000000     -1.8492000000 
  H100         -2.8440000000     -3.0127000000      0.2945000000 
  H101         -4.6273000000     -0.5231000000     -2.7677000000 
  H102          4.0825000000      0.3092000000      2.3468000000 
  H103          4.0972000000      1.9355000000     -1.6591000000 
  H104          2.8434000000      5.6659000000      1.1721000000 
  H105          6.1071000000      2.8456000000      0.7360000000 
  H106          3.1465000000      4.5013000000      3.4372000000 
  H107          1.6279000000      0.5431000000      2.5641000000 
  H108         -4.1601000000     -3.6836000000      4.1844000000 
  H109         -3.0812000000     -2.0873000000      5.6563000000 
  H110         -2.4987000000      0.2463000000      4.8012000000 
  H111         -9.2116000000     -1.3974000000      1.8145000000 
  H112        -10.2523000000     -0.5092000000     -0.1865000000 
  H113         -8.8049000000      0.4525000000     -2.0556000000 
  H114         -2.1889000000     -4.6671000000     -1.4999000000 
  H115         -2.8024000000     -4.2747000000     -3.8095000000 
  H116         -4.0380000000     -2.1352000000     -4.4540000000 
  H117          5.1892000000     -1.7919000000      1.4537000000 
  H118          5.7331000000     -1.9763000000     -0.9012000000 
  H119          5.1995000000     -0.0480000000     -2.4873000000 
  H120          4.5295000000      7.5601000000      1.0445000000 
  H121          6.8897000000      7.0781000000      0.7637000000 
  H122          7.6887000000      4.6586000000      0.6065000000 
  H123          2.2425000000      4.2790000000      5.7808000000 
  H124          1.0507000000      2.2773000000      6.4526000000 
  H125          0.7415000000      0.3619000000      4.7919000000 
  H126          4.4483000000     -5.1225000000      4.2784000000 
  H127          3.0856000000     -5.7578000000      2.3161000000 
  H128          1.6816000000     -1.7055000000      1.9573000000 
  H129          3.0062000000     -1.0907000000      3.9679000000 
  H130          4.3993000000     -2.7764000000      5.1126000000 
  H131          1.6676000000     -5.3048000000      0.6213000000 
  H132          2.4535000000     -3.2120000000     -4.2141000000 
  H133          4.8449000000     -3.1672000000     -5.0317000000 
  H134          6.6133000000     -4.2170000000     -3.5948000000 
  H135          5.9400000000     -5.2773000000     -1.4366000000 
  H136         -0.7372000000     -2.2884000000      1.6794000000 
  H137         -0.6327000000     -2.5183000000      4.1075000000 
  H138         -0.3059000000     -5.1470000000      4.7749000000 
  H139         -0.2018000000     -6.4876000000      2.4294000000 
  H140         -0.8009000000     -4.6599000000      0.5342000000 
  S141          1.2552000000     -0.2230000000     -2.1953000000 
  O142          2.2591000000     -1.2275000000     -2.5742000000 
  C143         -0.1682000000     -0.4752000000     -3.4040000000 
  O144          1.5788000000      1.1974000000     -2.3831000000 
  F145         -1.0127000000     -1.4056000000     -2.9740000000 
  F146         -0.8382000000      0.6711000000     -3.5742000000 
  F147          0.3368000000     -0.8522000000     -4.5878000000 
  H148          1.3163000000     -2.5096000000     -0.4136000000 
   
  principal moments of inertia:
        amu*angstrom^2:    21576.81623    24041.05971    30449.42047
                g*cm^2: 3.58291418E-36 3.99211139E-36 5.05624460E-36
   
  rotational constants:
               cm^(-1):      0.00078128      0.00070120      0.00055363
                   GHz:      0.02342232      0.02102149      0.01659733
   
  Molecular weight:    1308.28 amu
   
  Stoichiometry: Si2C73PN4H56S2O7F3
  Molecular Point Group: C1      
  Point Group used: C1
  
  nuclear repulsion energy.......   20978.023729394 hartrees
 
 Non-default options chosen:
   SCF calculation type: DFT(m06-2x)                 
   DFT=M06-2X
   Solvation energy will be computed using PBF
     -solute cavity energy will not be included
     -surface area terms will not be included
   Highest accuracy cutoffs used in SCF
   Solvent: other                                                           
   Internal dielectric constant:    1.000
   Continuum dielectric constant:   2.380
   Solvent probe molecule radius:   2.760
  
 Temporary integer options set:
     73=  2
  
  atom       vdw   vdw2    cov     mass  grid  daf  charge   basis
  C1        1.949  1.900  0.770   12.000    Y    Y      Y    6-31g**
  C2        1.949  1.900  0.770   12.000    Y    Y      Y    6-31g**
  C3        1.949  1.900  0.770   12.000    Y    Y      Y    6-31g**
  C4        1.949  1.900  0.770   12.000    Y    Y      Y    6-31g**
  C5        1.949  1.900  0.770   12.000    Y    Y      Y    6-31g**
  C6        1.949  1.900  0.770   12.000    Y    Y      Y    6-31g**
  C7        1.949  1.900  0.770   12.000    Y    Y      Y    6-31g**
  C8        1.949  1.900  0.770   12.000    Y    Y      Y    6-31g**
  C9        1.949  1.900  0.770   12.000    Y    Y      Y    6-31g**
  C10       1.949  1.900  0.770   12.000    Y    Y      Y    6-31g**
  C11       1.949  1.900  0.770   12.000    Y    Y      Y    6-31g**
  O12       1.702  1.600  0.730   15.995    Y    Y      Y    6-31g**
  Si13      2.217  2.147  1.110   27.977    Y    Y      Y    6-31g**
  C14       1.949  1.900  0.770   12.000    Y    Y      Y    6-31g**
  C15       1.949  1.900  0.770   12.000    Y    Y      Y    6-31g**
  C16       1.949  1.900  0.770   12.000    Y    Y      Y    6-31g**
  C17       1.949  1.900  0.770   12.000    Y    Y      Y    6-31g**
  C18       1.949  1.900  0.770   12.000    Y    Y      Y    6-31g**
  C19       1.949  1.900  0.770   12.000    Y    Y      Y    6-31g**
  C20       1.949  1.900  0.770   12.000    Y    Y      Y    6-31g**
  Si21      2.217  2.147  1.110   27.977    Y    Y      Y    6-31g**
  O22       1.702  1.600  0.730   15.995    Y    Y      Y    6-31g**
  C23       1.949  1.900  0.770   12.000    Y    Y      Y    6-31g**
  C24       1.949  1.900  0.770   12.000    Y    Y      Y    6-31g**
  P25       2.147  2.074  1.060   30.974    Y    Y      Y    6-31g**
  O26       1.702  1.600  0.730   15.995    Y    Y      Y    6-31g**
  N27       1.831  1.600  0.750   14.003    Y    Y      Y    6-31g**
  C28       1.949  1.900  0.770   12.000    Y    Y      Y    6-31g**
  C29       1.949  1.900  0.770   12.000    Y    Y      Y    6-31g**
  C30       1.949  1.900  0.770   12.000    Y    Y      Y    6-31g**
  C31       1.949  1.900  0.770   12.000    Y    Y      Y    6-31g**
  C32       1.949  1.900  0.770   12.000    Y    Y      Y    6-31g**
  C33       1.949  1.900  0.770   12.000    Y    Y      Y    6-31g**
  C34       1.949  1.900  0.770   12.000    Y    Y      Y    6-31g**
  C35       1.949  1.900  0.770   12.000    Y    Y      Y    6-31g**
  C36       1.949  1.900  0.770   12.000    Y    Y      Y    6-31g**
  C37       1.949  1.900  0.770   12.000    Y    Y      Y    6-31g**
  C38       1.949  1.900  0.770   12.000    Y    Y      Y    6-31g**
  C39       1.949  1.900  0.770   12.000    Y    Y      Y    6-31g**
  C40       1.949  1.900  0.770   12.000    Y    Y      Y    6-31g**
  C41       1.949  1.900  0.770   12.000    Y    Y      Y    6-31g**
  C42       1.949  1.900  0.770   12.000    Y    Y      Y    6-31g**
  C43       1.949  1.900  0.770   12.000    Y    Y      Y    6-31g**
  C44       1.949  1.900  0.770   12.000    Y    Y      Y    6-31g**
  C45       1.949  1.900  0.770   12.000    Y    Y      Y    6-31g**
  C46       1.949  1.900  0.770   12.000    Y    Y      Y    6-31g**
  C47       1.949  1.900  0.770   12.000    Y    Y      Y    6-31g**
  C48       1.949  1.900  0.770   12.000    Y    Y      Y    6-31g**
  C49       1.949  1.900  0.770   12.000    Y    Y      Y    6-31g**
  C50       1.949  1.900  0.770   12.000    Y    Y      Y    6-31g**
  C51       1.949  1.900  0.770   12.000    Y    Y      Y    6-31g**
  C52       1.949  1.900  0.770   12.000    Y    Y      Y    6-31g**
  C53       1.949  1.900  0.770   12.000    Y    Y      Y    6-31g**
  C54       1.949  1.900  0.770   12.000    Y    Y      Y    6-31g**
  C55       1.949  1.900  0.770   12.000    Y    Y      Y    6-31g**
  C56       1.949  1.900  0.770   12.000    Y    Y      Y    6-31g**
  C57       1.949  1.900  0.770   12.000    Y    Y      Y    6-31g**
  C58       1.949  1.900  0.770   12.000    Y    Y      Y    6-31g**
  C59       1.949  1.900  0.770   12.000    Y    Y      Y    6-31g**
  C60       1.949  1.900  0.770   12.000    Y    Y      Y    6-31g**
  C61       1.949  1.900  0.770   12.000    Y    Y      Y    6-31g**
  C62       1.949  1.900  0.770   12.000    Y    Y      Y    6-31g**
  C63       1.949  1.900  0.770   12.000    Y    Y      Y    6-31g**
  C64       1.949  1.900  0.770   12.000    Y    Y      Y    6-31g**
  C65       1.949  1.900  0.770   12.000    Y    Y      Y    6-31g**
  C66       1.949  1.900  0.770   12.000    Y    Y      Y    6-31g**
  C67       1.949  1.900  0.770   12.000    Y    Y      Y    6-31g**
  C68       1.949  1.900  0.770   12.000    Y    Y      Y    6-31g**
  C69       1.949  1.900  0.770   12.000    Y    Y      Y    6-31g**
  C70       1.949  1.900  0.770   12.000    Y    Y      Y    6-31g**
  N71       1.831  1.600  0.750   14.003    Y    Y      Y    6-31g**
  S72       2.070  1.900  1.020   31.972    Y    Y      Y    6-31g**
  O73       1.702  1.600  0.730   15.995    Y    Y      Y    6-31g**
  O74       1.702  1.600  0.730   15.995    Y    Y      Y    6-31g**
  C75       1.949  1.900  0.770   12.000    Y    Y      Y    6-31g**
  C76       1.949  1.900  0.770   12.000    Y    Y      Y    6-31g**
  C77       1.949  1.900  0.770   12.000    Y    Y      Y    6-31g**
  C78       1.949  1.900  0.770   12.000    Y    Y      Y    6-31g**
  C79       1.949  1.900  0.770   12.000    Y    Y      Y    6-31g**
  N80       1.831  1.600  0.750   14.003    Y    Y      Y    6-31g**
  N81       1.831  1.600  0.750   14.003    Y    Y      Y    6-31g**
  C82       1.949  1.900  0.770   12.000    Y    Y      Y    6-31g**
  C83       1.949  1.900  0.770   12.000    Y    Y      Y    6-31g**
  C84       1.949  1.900  0.770   12.000    Y    Y      Y    6-31g**
  C85       1.949  1.900  0.770   12.000    Y    Y      Y    6-31g**
  H86       1.597  1.150  0.320    1.008    Y    Y      Y    6-31g**
  H87       1.597  1.150  0.320    1.008    Y    Y      Y    6-31g**
  H88       1.597  1.150  0.320    1.008    Y    Y      Y    6-31g**
  H89       1.597  1.150  0.320    1.008    Y    Y      Y    6-31g**
  H90       1.597  1.150  0.320    1.008    Y    Y      Y    6-31g**
  H91       1.597  1.150  0.320    1.008    Y    Y      Y    6-31g**
  H92       1.597  1.150  0.320    1.008    Y    Y      Y    6-31g**
  H93       1.597  1.150  0.320    1.008    Y    Y      Y    6-31g**
  H94       1.597  1.150  0.320    1.008    Y    Y      Y    6-31g**
  H95       1.597  1.150  0.320    1.008    Y    Y      Y    6-31g**
  H96       1.597  1.150  0.320    1.008    Y    Y      Y    6-31g**
  H97       1.597  1.150  0.320    1.008    Y    Y      Y    6-31g**
  H98       1.597  1.150  0.320    1.008    Y    Y      Y    6-31g**
  H99       1.597  1.150  0.320    1.008    Y    Y      Y    6-31g**
  H100      1.597  1.150  0.320    1.008    Y    Y      Y    6-31g**
  H101      1.597  1.150  0.320    1.008    Y    Y      Y    6-31g**
  H102      1.597  1.150  0.320    1.008    Y    Y      Y    6-31g**
  H103      1.597  1.150  0.320    1.008    Y    Y      Y    6-31g**
  H104      1.597  1.150  0.320    1.008    Y    Y      Y    6-31g**
  H105      1.597  1.150  0.320    1.008    Y    Y      Y    6-31g**
  H106      1.597  1.150  0.320    1.008    Y    Y      Y    6-31g**
  H107      1.597  1.150  0.320    1.008    Y    Y      Y    6-31g**
  H108      1.597  1.150  0.320    1.008    Y    Y      Y    6-31g**
  H109      1.597  1.150  0.320    1.008    Y    Y      Y    6-31g**
  H110      1.597  1.150  0.320    1.008    Y    Y      Y    6-31g**
  H111      1.597  1.150  0.320    1.008    Y    Y      Y    6-31g**
  H112      1.597  1.150  0.320    1.008    Y    Y      Y    6-31g**
  H113      1.597  1.150  0.320    1.008    Y    Y      Y    6-31g**
  H114      1.597  1.150  0.320    1.008    Y    Y      Y    6-31g**
  H115      1.597  1.150  0.320    1.008    Y    Y      Y    6-31g**
  H116      1.597  1.150  0.320    1.008    Y    Y      Y    6-31g**
  H117      1.597  1.150  0.320    1.008    Y    Y      Y    6-31g**
  H118      1.597  1.150  0.320    1.008    Y    Y      Y    6-31g**
  H119      1.597  1.150  0.320    1.008    Y    Y      Y    6-31g**
  H120      1.597  1.150  0.320    1.008    Y    Y      Y    6-31g**
  H121      1.597  1.150  0.320    1.008    Y    Y      Y    6-31g**
  H122      1.597  1.150  0.320    1.008    Y    Y      Y    6-31g**
  H123      1.597  1.150  0.320    1.008    Y    Y      Y    6-31g**
  H124      1.597  1.150  0.320    1.008    Y    Y      Y    6-31g**
  H125      1.597  1.150  0.320    1.008    Y    Y      Y    6-31g**
  H126      1.597  1.150  0.320    1.008    Y    Y      Y    6-31g**
  H127      1.597  1.150  0.320    1.008    Y    Y      Y    6-31g**
  H128      1.597  1.150  0.320    1.008    Y    Y      Y    6-31g**
  H129      1.597  1.150  0.320    1.008    Y    Y      Y    6-31g**
  H130      1.597  1.150  0.320    1.008    Y    Y      Y    6-31g**
  H131      1.597  1.150  0.320    1.008    Y    Y      Y    6-31g**
  H132      1.597  1.150  0.320    1.008    Y    Y      Y    6-31g**
  H133      1.597  1.150  0.320    1.008    Y    Y      Y    6-31g**
  H134      1.597  1.150  0.320    1.008    Y    Y      Y    6-31g**
  H135      1.597  1.150  0.320    1.008    Y    Y      Y    6-31g**
  H136      1.597  1.150  0.320    1.008    Y    Y      Y    6-31g**
  H137      1.597  1.150  0.320    1.008    Y    Y      Y    6-31g**
  H138      1.597  1.150  0.320    1.008    Y    Y      Y    6-31g**
  H139      1.597  1.150  0.320    1.008    Y    Y      Y    6-31g**
  H140      1.597  1.150  0.320    1.008    Y    Y      Y    6-31g**
  S141      2.070  1.900  1.020   31.972    Y    Y      Y    6-31g**
  O142      1.702  1.600  0.730   15.995    Y    Y      Y    6-31g**
  C143      1.949  1.900  0.770   12.000    Y    Y      Y    6-31g**
  O144      1.702  1.600  0.730   15.995    Y    Y      Y    6-31g**
  F145      1.736  1.682  0.720   18.998    Y    Y      Y    6-31g**
  F146      1.736  1.682  0.720   18.998    Y    Y      Y    6-31g**
  F147      1.736  1.682  0.720   18.998    Y    Y      Y    6-31g**
  H148      1.597  1.150  0.320    1.008    Y    Y      Y    6-31g**
  
  Peak memory usage:    528 Mb
  
  end of program pre
   
 Time(pre)  user:        0.0  user+sys:        0.0  wallclock:        1.0
  
  start of program onee
  
  smallest eigenvalue of S:    2.339E-04
  number of canonical orbitals.....         1673
  Peak memory usage:    707 Mb
  
  end of program onee
   
 Time(onee)  user:       31.0  user+sys:       32.0  wallclock:       90.6
  
  start of program hfig
  
  initial wavefunction generated automatically from atomic wavefunctions
 
  Irreducible     Total no   No of occupied orbitals 
  representation  orbitals   Shell_1  Shell_2    ...
  No Symm         1673        340
  ------------------------
  Orbital occupation/shell    1.000
 
  Peak memory usage:    646 Mb
  
  end of program hfig
   
 Time(hfig)  user:       45.0  user+sys:       45.0  wallclock:      126.7
  
  start of program probe
  
  Peak memory usage:    640 Mb
  
  end of program probe
   
 Time(probe)  user:       37.0  user+sys:       37.0  wallclock:       99.7
  
  start of program grid
  
  
   grid     grid set  grid #  grid sym
  ------    --------  ------  --------
  coarse        0        0        1
  medium        2        1        1
  fine          0        0        1
  ultrafine     4        2        1
  charge       -1        3        1
  gradient      4        2        1
  density       0        0        1
  DFT-fine    -13        4        1
  DFT-med.    -13        4        1
  DFT-grad    -13        4        1
  DFT-der2      0        0        1
  DFT-cphf      0        0        1
  LMP2-enrg     4        2        1
  LMP2-grad     2        1        1
  DFT-cphf2     0        0        1
  PBF-dens      0        0        1
  plotting      0        0        1
  
   
  number of gridpoints: 
     atom        C1       C2       C3       C4       C5       C6       C7
  grid # 1       97      100       94      101      100       96       93
  grid # 2      338      360      337      366      357      335      335
  grid # 3       36       26       44       43       15       48       19
  grid # 4    48124    48124    48124    48124    48124    48124    48124
   
  number of gridpoints: 
     atom        C8       C9      C10      C11      O12     Si13      C14
  grid # 1       94       97      100      101      111      476      101
  grid # 2      336      357      355      359      435      476      356
  grid # 3       49       20        9       12       26       11       13
  grid # 4    48124    48124    48124    48124    47716    38542    48124
   
  number of gridpoints: 
     atom       C15      C16      C17      C18      C19      C20     Si21
  grid # 1       98      101       96       94       97      101      474
  grid # 2      359      364      335      330      339      359      474
  grid # 3       20       24       21       13       38       14        9
  grid # 4    48124    48124    48124    48124    48124    48124    38542
   
  number of gridpoints: 
     atom       O22      C23      C24      P25      O26      N27      C28
  grid # 1      112       94       94      447      116      108      101
  grid # 2      436      339      339      447      444      401      359
  grid # 3       50       33       44        7       32       23       10
  grid # 4    47716    48124    48124    38640    47716    47928    48124
   
  number of gridpoints: 
     atom       C29      C30      C31      C32      C33      C34      C35
  grid # 1      101      100      100      100      100       92       97
  grid # 2      361      360      359      357      362      332      335
  grid # 3       21       20        8       12       19        9       22
  grid # 4    48124    48124    48124    48124    48124    48124    48124
   
  number of gridpoints: 
     atom       C36      C37      C38      C39      C40      C41      C42
  grid # 1       94       96       93       97       92       94       92
  grid # 2      337      334      335      337      332      331      332
  grid # 3       31       28       22       22       16       10       10
  grid # 4    48124    48124    48124    48124    48124    48124    48124
   
  number of gridpoints: 
     atom       C43      C44      C45      C46      C47      C48      C49
  grid # 1       97       95       95       92       94       93       94
  grid # 2      339      337      334      332      331      331      336
  grid # 3       34       40       18       19       28       28       45
  grid # 4    48124    48124    48124    48124    48124    48124    48124
   
  number of gridpoints: 
     atom       C50      C51      C52      C53      C54      C55      C56
  grid # 1       94       94       94       94       94       93       94
  grid # 2      336      337      335      333      334      333      334
  grid # 3       46       43       28       29       30       26       28
  grid # 4    48124    48124    48124    48124    48124    48124    48124
   
  number of gridpoints: 
     atom       C57      C58      C59      C60      C61      C62      C63
  grid # 1       92       93       94       94       94       94       93
  grid # 2      330      335      335      336      336      335      335
  grid # 3       19       32       44       44       47       46       29
  grid # 4    48124    48124    48124    48124    48124    48124    48124
   
  number of gridpoints: 
     atom       C64      C65      C66      C67      C68      C69      C70
  grid # 1       95       95       98       95       95       95       91
  grid # 2      331      334      356      327      330      330      322
  grid # 3       27       22       16        9       16       24        6
  grid # 4    48124    48124    48124    48124    48124    48124    48124
   
  number of gridpoints: 
     atom       N71      S72      O73      O74      C75      C76      C77
  grid # 1       98      441      122      120       98       96       96
  grid # 2      353      441      491      473      357      326      330
  grid # 3       10       14      233       95       33       35       37
  grid # 4    47928    48492    47716    47716    48124    48124    48124
   
  number of gridpoints: 
     atom       C78      C79      N80      N81      C82      C83      C84
  grid # 1       96       96      112       96       94       93       94
  grid # 2      330      337      418      345      328      330      330
  grid # 3       32       30       98       13       11       17       21
  grid # 4    48124    48124    47928    47928    48124    48124    48124
   
  number of gridpoints: 
     atom       C85      H86      H87      H88      H89      H90      H91
  grid # 1       92      112      118      116      108      118      114
  grid # 2      322      433      451      446      428      453      434
  grid # 3        8      229      420      358      191      425      247
  grid # 4    48124    48426    48426    48426    48426    48426    48426
   
  number of gridpoints: 
     atom       H92      H93      H94      H95      H96      H97      H98
  grid # 1      109      118      118      118      112      112      111
  grid # 2      424      443      449      451      426      425      430
  grid # 3      150      360      410      418      219      195      225
  grid # 4    48426    48426    48426    48426    48426    48426    48426
   
  number of gridpoints: 
     atom       H99     H100     H101     H102     H103     H104     H105
  grid # 1      109      106      110      108      110      111      112
  grid # 2      425      411      426      419      426      434      433
  grid # 3      192       86      192      151      180      226      261
  grid # 4    48426    48426    48426    48426    48426    48426    48426
   
  number of gridpoints: 
     atom      H106     H107     H108     H109     H110     H111     H112
  grid # 1      112      104      117      117      115      118      118
  grid # 2      431      400      449      448      445      452      453
  grid # 3      230       37      365      362      315      417      425
  grid # 4    48426    48426    48426    48426    48426    48426    48426
   
  number of gridpoints: 
     atom      H113     H114     H115     H116     H117     H118     H119
  grid # 1      118      111      117      117      114      113      116
  grid # 2      452      431      451      452      440      437      444
  grid # 3      418      217      383      399      262      256      323
  grid # 4    48426    48426    48426    48426    48426    48426    48426
   
  number of gridpoints: 
     atom      H120     H121     H122     H123     H124     H125     H126
  grid # 1      118      118      118      118      118      111      118
  grid # 2      452      453      453      452      452      435      449
  grid # 3      410      424      425      417      409      215      409
  grid # 4    48426    48426    48426    48426    48426    48426    48426
   
  number of gridpoints: 
     atom      H127     H128     H129     H130     H131     H132     H133
  grid # 1      111      105      109      117      104      111      117
  grid # 2      437      406      422      449      408      430      453
  grid # 3      283       58      139      408       99      218      408
  grid # 4    48426    48426    48426    48426    48426    48426    48426
   
  number of gridpoints: 
     atom      H134     H135     H136     H137     H138     H139     H140
  grid # 1      117      117       99      111      116      116      107
  grid # 2      451      452      393      433      458      456      418
  grid # 3      404      408       52      192      415      394      112
  grid # 4    48426    48426    48426    48426    48426    48426    48426
   
  number of gridpoints: 
     atom      S141     O142     C143     O144     F145     F146     F147
  grid # 1      438      118       90      118      506      522      533
  grid # 2      438      469      321      473      506      522      533
  grid # 3       10       67        7       96       51      165      258
  grid # 4    48492    47716    48124    47716    47062    47062    47062
   
  number of gridpoints: 
     atom      H148    total
  grid # 1      103    18382
  grid # 2      404    57826
  grid # 3       71    19037
  grid # 4    48426  7104526
   
  Peak memory usage:    671 Mb
  
  end of program grid
   
 Time(grid)  user:     1068.0  user+sys:     1074.0  wallclock:     3014.9
  
  start of program rwr
  
  Peak memory usage:    661 Mb
  
  end of program rwr
   
 Time(rwr)  user:       75.0  user+sys:       82.0  wallclock:      230.7
  
  start of program scf
  
 number of electrons..........        680
 number of alpha electrons....        340
 number of beta electrons.....        340
 number of orbitals, total....       1673
 number of doubly-occ'd orbs..        340
 number of open shell orbs....          0
 number of occupied orbitals..        340
 number of virtual orbitals...       1333
 number of hamiltonians.......          1
 number of shells.............          1
 SCF type: DFT=M06-2X
  
       i  u  d  i  g                   
       t  p  i  c  r                                 RMS    maximum
       e  d  i  u  i                       energy  density   DIIS  
       r  t  s  t  d       total energy    change  change    error 
  
etot    1  N  N  1  U   -5562.73148017589           3.7E-03  1.2E-01
etot    2  N  Y  1  U   -5531.51687622452 -3.1E+01  1.4E-02  1.5E-01
etot    3  N  Y  1  U   -5309.04889398804 -2.2E+02  1.4E-02  3.5E-01
etot    4  N  Y  1  U   -5570.32978448933  2.6E+02  2.3E-03  8.3E-02
etot    5  N  Y  1  U   -5573.23023235459  2.9E+00  1.5E-03  3.7E-02
etot    6  N  Y  1  U   -5572.86163982399 -3.7E-01  9.8E-04  4.1E-02
etot    7  N  Y  1  U   -5575.45632113824  2.6E+00  2.4E-04  1.1E-02
etot    8  N  Y  1  U   -5575.54218772961  8.6E-02  9.1E-05  3.6E-03
etot    9  N  Y  1  U   -5575.55063936795  8.5E-03  4.3E-05  1.5E-03
etot   10  N  Y  1  U   -5575.55359867348  3.0E-03  2.0E-05  9.6E-04
etot   11  N  Y  1  U   -5575.55421626080  6.2E-04  1.2E-05  4.6E-04
etot   12  N  Y  1  U   -5575.55442791372  2.1E-04  5.5E-06  1.8E-04
etot   13  N  N  1  U   -5575.55446289806  3.5E-05  0.0E+00  0.0E+00
  
  
 Energy components, in hartrees:
   (A)  Nuclear repulsion............   20978.02372939356
   (E)  Total one-electron terms.....  -49485.64663093507
   (F)    Electron-nuclear...........  -55021.63203940485
   (H)    Kinetic....................    5535.98540846980
   (I)  Total two-electron terms.....   22932.06843864344
   (J)    Coulomb....................   23583.32074007702
   (K)    Exchange+Correlation.......    -651.25230143358
   (L)  Electronic energy............  -26553.57819229163  (E+I)
   (M)  -V/T.........................       2.00714760815  (-(A+F+I)/H)
   (N)  Total energy.................   -5575.55446289806  (A+L)
  
 SCFE: SCF energy: DFT(m06-2x)     -5575.55446289806 hartrees   iterations:  13
  
 
 HOMO energy:    -0.24227
 LUMO energy:    -0.06794
 
  Orbital energies (hartrees): 
   -90.17064   -90.13479   -78.20812   -67.00756   -67.00415   -25.27011
   -25.26671   -25.26660   -19.68837   -19.68679   -19.65261   -19.65117
   -19.60789   -19.60779   -19.60740   -14.82532   -14.81873   -14.79024
   -14.73778   -10.78520   -10.66342   -10.62959   -10.62054   -10.61742
   -10.61379   -10.60858   -10.60777   -10.58907   -10.58619   -10.58355
   -10.58348   -10.58321   -10.57735   -10.57420   -10.57264   -10.57198
   -10.57082   -10.56719   -10.56709   -10.56371   -10.55796   -10.55778
   -10.55663   -10.55482   -10.55389   -10.55360   -10.55131   -10.54994
   -10.54866   -10.54850   -10.54797   -10.54786   -10.54777   -10.54749
   -10.54749   -10.54722   -10.54722   -10.54721   -10.54695   -10.54616
   -10.54595   -10.54589   -10.54556   -10.54513   -10.54493   -10.54422
   -10.54378   -10.54341   -10.54274   -10.54262   -10.54211   -10.54202
   -10.54148   -10.54000   -10.53885   -10.53790   -10.53760   -10.53681
   -10.53615   -10.53540   -10.53511   -10.53503   -10.53437   -10.53364
   -10.53269   -10.53162   -10.53080   -10.53033   -10.52918   -10.52822
   -10.52437   -10.52008    -8.48108    -8.44374    -6.98739    -6.40343
    -6.40237    -6.40130    -6.36560    -6.36521    -6.36499    -5.53839
    -5.53469    -5.10564    -5.10502    -5.10332    -3.84825    -3.84788
    -3.84763    -3.84444    -3.84420    -3.84406    -1.43579    -1.34525
    -1.34290    -1.24599    -1.22385    -1.20083    -1.18165    -1.13403
    -1.11711    -1.09066    -1.08743    -1.08235    -1.06365    -0.97875
    -0.97815    -0.96874    -0.95808    -0.94542    -0.94087    -0.94040
    -0.93762    -0.92970    -0.92792    -0.92413    -0.91546    -0.90391
    -0.90134    -0.89697    -0.88278    -0.88120    -0.86011    -0.84749
    -0.84590    -0.84218    -0.83866    -0.83574    -0.83349    -0.83179
    -0.83051    -0.82849    -0.82639    -0.82280    -0.82259    -0.82164
    -0.81989    -0.81808    -0.81660    -0.81586    -0.80573    -0.80302
    -0.79175    -0.76277    -0.74942    -0.73799    -0.71620    -0.71459
    -0.70238    -0.69953    -0.69824    -0.69531    -0.69320    -0.68956
    -0.68346    -0.67826    -0.67543    -0.67323    -0.67280    -0.67238
    -0.67116    -0.66977    -0.66637    -0.66456    -0.66136    -0.66069
    -0.66017    -0.65851    -0.65623    -0.65594    -0.65153    -0.65050
    -0.64500    -0.64111    -0.63388    -0.62275    -0.61885    -0.60770
    -0.60536    -0.59921    -0.59378    -0.58121    -0.58034    -0.57772
    -0.57486    -0.57197    -0.57175    -0.57139    -0.56994    -0.56673
    -0.56549    -0.55503    -0.55395    -0.54849    -0.54623    -0.54310
    -0.53964    -0.53714    -0.53667    -0.53571    -0.53409    -0.53216
    -0.53052    -0.52138    -0.51949    -0.51780    -0.51644    -0.51455
    -0.51359    -0.51284    -0.50990    -0.50806    -0.50745    -0.50544
    -0.50455    -0.50207    -0.50073    -0.49923    -0.49881    -0.49861
    -0.49663    -0.49504    -0.49266    -0.49203    -0.49103    -0.48961
    -0.48790    -0.48666    -0.48646    -0.48518    -0.48341    -0.48250
    -0.48120    -0.48050    -0.47850    -0.47800    -0.47792    -0.47678
    -0.47671    -0.46993    -0.46869    -0.46739    -0.46233    -0.46083
    -0.45679    -0.45079    -0.44887    -0.44656    -0.44638    -0.44360
    -0.44185    -0.44009    -0.43559    -0.43148    -0.42977    -0.42751
    -0.42356    -0.42171    -0.42025    -0.41803    -0.41693    -0.41610
    -0.41552    -0.41316    -0.41007    -0.40836    -0.40425    -0.39941
    -0.39871    -0.39757    -0.39476    -0.39324    -0.39274    -0.39089
    -0.39001    -0.38691    -0.38540    -0.38477    -0.38363    -0.37891
    -0.37700    -0.37528    -0.37147    -0.36738    -0.36588    -0.36168
    -0.35610    -0.34924    -0.34793    -0.34714    -0.34390    -0.34244
    -0.34040    -0.33819    -0.33690    -0.33569    -0.33285    -0.32971
    -0.32695    -0.32296    -0.32082    -0.31898    -0.31564    -0.30196
    -0.29999    -0.29866    -0.29833    -0.29645    -0.29596    -0.29414
    -0.29192    -0.29011    -0.28589    -0.28575    -0.28408    -0.27927
    -0.27839    -0.27251    -0.26544    -0.24227    -0.06794    -0.01760
    -0.01132     0.00143     0.00422     0.01181     0.01560     0.01720
     0.02011     0.02231
 
  Peak memory usage:    862 Mb
  
  end of program scf
   
 Time(scf)  user:    30936.0  user+sys:    31055.0  wallclock:    39980.0
  
  start of program ch
  
  gridpoints used for charge fit        16518
    out of a possible maximum of        19037
  
   Electrostatic potential fitting constrained to reproduce
     total charge:                yes
     dipole moment:               no 
     traceless quadrupole moment: no 
     traceless octapole moment:   no 
  
  Atomic charges from electrostatic potential: 
   
 Atom       C1           C2           C3           C4           C5      
 Charge   -0.10822      0.00175     -0.17094      0.20209     -0.04483
   
 Atom       C6           C7           C8           C9           C10     
 Charge   -0.22802     -0.34229     -0.10849      0.16457     -0.06529
   
 Atom       C11          O12          Si13         C14          C15     
 Charge    0.02750     -0.20879     -0.06821     -0.00364      0.18857
   
 Atom       C16          C17          C18          C19          C20     
 Charge    0.41288     -0.09861     -0.53520     -0.32672      0.10180
   
 Atom       Si21         O22          C23          C24          P25     
 Charge   -0.24718     -0.23199     -0.20281     -0.07079      0.61442
   
 Atom       O26          N27          C28          C29          C30     
 Charge   -0.51862     -0.42959      0.15898      0.13107      0.04490
   
 Atom       C31          C32          C33          C34          C35     
 Charge    0.32222      0.14304      0.15615     -0.07197     -0.18090
   
 Atom       C36          C37          C38          C39          C40     
 Charge   -0.16152     -0.19396     -0.00716     -0.21694     -0.12917
   
 Atom       C41          C42          C43          C44          C45     
 Charge   -0.30624     -0.06582     -0.21098     -0.18400     -0.12951
   
 Atom       C46          C47          C48          C49          C50     
 Charge   -0.19483     -0.10371     -0.16897     -0.12903     -0.14491
   
 Atom       C51          C52          C53          C54          C55     
 Charge   -0.10639     -0.18729     -0.10689     -0.11339     -0.24836
   
 Atom       C56          C57          C58          C59          C60     
 Charge   -0.05214     -0.08765     -0.21317     -0.10995     -0.12167
   
 Atom       C61          C62          C63          C64          C65     
 Charge   -0.12172     -0.18949     -0.04494     -0.16543     -0.20056
   
 Atom       C66          C67          C68          C69          C70     
 Charge    0.22333      0.04073     -0.13362     -0.14294     -0.24505
   
 Atom       N71          S72          O73          O74          C75     
 Charge   -0.20618      0.63463     -0.42134     -0.39614      0.50795
   
 Atom       C76          C77          C78          C79          N80     
 Charge   -0.35820      0.16282     -0.42827      0.37279     -0.57727
   
 Atom       N81          C82          C83          C84          C85     
 Charge    0.02710     -0.10516     -0.16895     -0.26826      0.05892
   
 Atom       H86          H87          H88          H89          H90     
 Charge    0.10223      0.14617      0.14325      0.17750      0.13202
   
 Atom       H91          H92          H93          H94          H95     
 Charge    0.11697      0.21547      0.16488      0.14741      0.12406
   
 Atom       H96          H97          H98          H99          H100    
 Charge    0.10539      0.14640      0.10118      0.13527     -0.02477
   
 Atom       H101         H102         H103         H104         H105    
 Charge    0.15211      0.07419      0.20514      0.11792      0.12105
   
 Atom       H106         H107         H108         H109         H110    
 Charge    0.11964      0.08485      0.13224      0.12001      0.14396
   
 Atom       H111         H112         H113         H114         H115    
 Charge    0.13057      0.13103      0.12494      0.13948      0.13085
   
 Atom       H116         H117         H118         H119         H120    
 Charge    0.13048      0.15139      0.08898      0.11415      0.14109
   
 Atom       H121         H122         H123         H124         H125    
 Charge    0.12780      0.13226      0.13232      0.13728      0.07903
   
 Atom       H126         H127         H128         H129         H130    
 Charge    0.15553      0.15362      0.03534      0.10951      0.15157
   
 Atom       H131         H132         H133         H134         H135    
 Charge    0.19332      0.18121      0.11256      0.18712      0.05659
   
 Atom       H136         H137         H138         H139         H140    
 Charge    0.27566      0.17882      0.16900      0.20391      0.13108
   
 Atom       S141         O142         C143         O144         F145    
 Charge    0.67759     -0.43893      0.39263     -0.44295     -0.08554
   
 Atom       F146         F147         H148    
 Charge   -0.14098     -0.13498      0.21418
  
  sum of atomic charges:     0.000000
   
 RMS Error   9.87E-04 hartrees
 
  Peak memory usage:    589 Mb
  
  end of program ch
   
 Time(ch)  user:       17.0  user+sys:       17.0  wallclock:       18.9
  
  start of program post
  
  Writing input files for PBF
  Peak memory usage:    536 Mb
  
  end of program post
   
 Time(post)  user:        0.0  user+sys:        0.0  wallclock:        0.2

  start of program pbf

Pbf Version 4.00

Molecular surface area:      827.33232   [A2]
Reaction field energy:       -17.61161   [kT]
  Peak memory usage: 559 Mb

  end of program pbf

 Time(pbf)  user:        7.6  user+sys:        7.6  wallclock:        7.7
  
  start of program solv
  
   number of surface charges from PBF   13506
   sum of surface charges     -0.00031
   
  nuclear repulsion energy.......   20978.023729394 hartrees
  Peak memory usage:    701 Mb
  
  end of program solv
   
 Time(solv)  user:       35.0  user+sys:       35.0  wallclock:       35.4
  
  start of program scf
  
  
       i  u  d  i  g                   
       t  p  i  c  r                                 RMS    maximum
       e  d  i  u  i                       energy  density   DIIS  
       r  t  s  t  d       total energy    change  change    error 
  
etot    1  N  N  1  U   -5575.59140907100           5.2E-05  8.1E-04
etot    2  N  Y  1  U   -5575.59220898532  8.0E-04  1.6E-05  5.7E-04
etot    3  N  Y  1  U   -5575.59245334851  2.4E-04  5.2E-06  2.7E-04
etot    4  N  N  1  U   -5575.59249994667  4.7E-05  0.0E+00  0.0E+00
  
  
 Energy components, in hartrees:
   (A)  Total zero-electron terms....   20981.23325361900
   (B)    Nuclear-nuclear............   20978.02372939356
   (C)    Nuclear-solvent............       3.20952422544
   (E)  Total one-electron terms.....  -49490.60004760462
   (F)    Electron-nuclear...........  -55023.37687382878
   (G)    Electron-solvent...........      -3.24862266871
   (H)    Kinetic....................    5536.02544889286
   (I)  Total two-electron terms.....   22933.77429403895
   (J)    Coulomb....................   23585.04454557667
   (K)    Exchange+Correlation.......    -651.27025153771
   (L)  Electronic energy............  -26556.82575356567  (E+I)
   (N)  Total quantum mech. energy...   -5575.59249994667  (A+L)
   (O)  Gas phase energy.............   -5575.55446289806
   (P)  Solution phase energy........   -5575.57295072503  (Q+R+S)
   (Q)    Total solute energy........   -5575.55340150339  (N-C-G)
   (R)    Total solvent energy.......      -0.01954922164  (C/2+G/2)
   (S)    Solute cavity energy.......       0.00000000000
   (U)  Reorganization energy........       0.00106139467  (Q-O)
   (V)  Solvation energy.............      -0.01848782697  (P-O)
  
 SCFE:  Solution phase energy: DFT(m06-2x)      -5575.57295072503 hartrees
        SCF iterations:   4
  
 
 HOMO energy:    -0.24627
 LUMO energy:    -0.06585
 
  Orbital energies (hartrees): 
   -90.17454   -90.14048   -78.21121   -67.01052   -67.00758   -25.27802
   -25.27382   -25.27311   -19.69153   -19.69028   -19.65713   -19.65559
   -19.61463   -19.61241   -19.60949   -14.82210   -14.81983   -14.78857
   -14.74282   -10.79184   -10.66117   -10.62863   -10.62100   -10.61904
   -10.61744   -10.60576   -10.60500   -10.58446   -10.58339   -10.58109
   -10.57954   -10.57835   -10.57347   -10.57182   -10.56985   -10.56891
   -10.56844   -10.56669   -10.56642   -10.56459   -10.56135   -10.56089
   -10.55972   -10.55860   -10.55430   -10.55395   -10.55256   -10.55224
   -10.55133   -10.55122   -10.55118   -10.55061   -10.55037   -10.55030
   -10.55013   -10.54996   -10.54995   -10.54979   -10.54920   -10.54899
   -10.54856   -10.54828   -10.54790   -10.54769   -10.54734   -10.54677
   -10.54655   -10.54599   -10.54575   -10.54574   -10.54566   -10.54526
   -10.54521   -10.54375   -10.54221   -10.54169   -10.54112   -10.54073
   -10.53952   -10.53935   -10.53878   -10.53824   -10.53706   -10.53613
   -10.53602   -10.53480   -10.53403   -10.53397   -10.53323   -10.53160
   -10.52818   -10.52324    -8.48488    -8.44944    -6.99052    -6.40721
    -6.40626    -6.40506    -6.37129    -6.37091    -6.37070    -5.54135
    -5.53812    -5.10877    -5.10815    -5.10643    -3.85122    -3.85084
    -3.85060    -3.84787    -3.84765    -3.84749    -1.44288    -1.35251
    -1.34986    -1.25029    -1.22730    -1.20664    -1.18508    -1.13883
    -1.11502    -1.09349    -1.09248    -1.08079    -1.06412    -0.98204
    -0.97586    -0.97292    -0.96177    -0.94688    -0.94421    -0.94323
    -0.94079    -0.93379    -0.93150    -0.92064    -0.91877    -0.90520
    -0.90082    -0.89513    -0.88479    -0.88013    -0.85701    -0.84924
    -0.84546    -0.84370    -0.84187    -0.83723    -0.83586    -0.83487
    -0.83337    -0.83164    -0.82894    -0.82606    -0.82573    -0.82512
    -0.82316    -0.82158    -0.82026    -0.81920    -0.81205    -0.80218
    -0.79535    -0.76130    -0.75348    -0.73464    -0.72008    -0.71337
    -0.70544    -0.70132    -0.69751    -0.69678    -0.69260    -0.68795
    -0.68621    -0.67972    -0.67606    -0.67531    -0.67463    -0.67378
    -0.67341    -0.67152    -0.66986    -0.66764    -0.66658    -0.66553
    -0.66359    -0.66278    -0.65907    -0.65836    -0.65409    -0.65019
    -0.64455    -0.64414    -0.63734    -0.62246    -0.62017    -0.60912
    -0.60764    -0.60182    -0.59672    -0.58216    -0.58004    -0.57960
    -0.57744    -0.57469    -0.57329    -0.57157    -0.56998    -0.56868
    -0.56793    -0.55763    -0.55660    -0.55057    -0.54634    -0.54397
    -0.54329    -0.54070    -0.53870    -0.53774    -0.53515    -0.53330
    -0.53167    -0.52399    -0.51948    -0.51916    -0.51783    -0.51666
    -0.51570    -0.51362    -0.51266    -0.51116    -0.50953    -0.50887
    -0.50546    -0.50459    -0.50421    -0.50247    -0.50179    -0.50114
    -0.49924    -0.49800    -0.49461    -0.49287    -0.49224    -0.49119
    -0.48986    -0.48947    -0.48697    -0.48592    -0.48515    -0.48400
    -0.48334    -0.48241    -0.48068    -0.48014    -0.47881    -0.47827
    -0.47489    -0.47229    -0.47082    -0.47019    -0.46387    -0.45998
    -0.45761    -0.45255    -0.44973    -0.44884    -0.44692    -0.44629
    -0.44438    -0.44202    -0.43933    -0.43395    -0.43072    -0.42769
    -0.42609    -0.42476    -0.42293    -0.42190    -0.41961    -0.41904
    -0.41647    -0.41442    -0.41341    -0.41219    -0.40810    -0.40225
    -0.40221    -0.40005    -0.39825    -0.39605    -0.39456    -0.39254
    -0.39248    -0.38956    -0.38827    -0.38761    -0.38620    -0.38202
    -0.38048    -0.37864    -0.37478    -0.37122    -0.36931    -0.36279
    -0.35783    -0.35266    -0.35146    -0.34697    -0.34575    -0.34401
    -0.34113    -0.34075    -0.33958    -0.33649    -0.33556    -0.33275
    -0.33127    -0.32672    -0.32059    -0.31855    -0.31632    -0.30274
    -0.30259    -0.30224    -0.30148    -0.30001    -0.29950    -0.29730
    -0.29546    -0.29036    -0.28962    -0.28907    -0.28751    -0.28350
    -0.28227    -0.27627    -0.26924    -0.24627    -0.06585    -0.01570
    -0.01521     0.00063     0.00429     0.01261     0.01507     0.01680
     0.01829     0.01931
 
  Peak memory usage:    859 Mb
  
  end of program scf
   
 Time(scf)  user:     6791.0  user+sys:     6814.0  wallclock:     6840.9
  
  start of program sole
  
    SCRF                   solvation energy
  iteration          Hartrees            kcal/mol
     0               0.0000000            0.0000
     1              -0.0184878          -11.6013
  
  solvation energy not yet converged... 
  
  Peak memory usage:    635 Mb
  
  end of program sole
   
 Time(sole)  user:        0.0  user+sys:        0.0  wallclock:        0.2
  
  start of program ch
  
  gridpoints used for charge fit        16518
    out of a possible maximum of        16518
  
   Electrostatic potential fitting constrained to reproduce
     total charge:                yes
     dipole moment:               no 
     traceless quadrupole moment: no 
     traceless octapole moment:   no 
  
  Atomic charges from electrostatic potential: 
   
 Atom       C1           C2           C3           C4           C5      
 Charge   -0.11109      0.00004     -0.17930      0.20409     -0.04390
   
 Atom       C6           C7           C8           C9           C10     
 Charge   -0.23727     -0.35555     -0.11383      0.15727     -0.07082
   
 Atom       C11          O12          Si13         C14          C15     
 Charge    0.04563     -0.20130     -0.09391      0.00017      0.17976
   
 Atom       C16          C17          C18          C19          C20     
 Charge    0.41610     -0.10127     -0.54602     -0.33804      0.11810
   
 Atom       Si21         O22          C23          C24          P25     
 Charge   -0.25827     -0.22257     -0.21131     -0.07503      0.59304
   
 Atom       O26          N27          C28          C29          C30     
 Charge   -0.50491     -0.41111      0.17421      0.13170      0.05481
   
 Atom       C31          C32          C33          C34          C35     
 Charge    0.32775      0.13354      0.15728     -0.07385     -0.19963
   
 Atom       C36          C37          C38          C39          C40     
 Charge   -0.16387     -0.20039     -0.01291     -0.22887     -0.12929
   
 Atom       C41          C42          C43          C44          C45     
 Charge   -0.30143     -0.05555     -0.21003     -0.18860     -0.12856
   
 Atom       C46          C47          C48          C49          C50     
 Charge   -0.19933     -0.11581     -0.16772     -0.13800     -0.15180
   
 Atom       C51          C52          C53          C54          C55     
 Charge   -0.11205     -0.19529     -0.11504     -0.11942     -0.26111
   
 Atom       C56          C57          C58          C59          C60     
 Charge   -0.04781     -0.10204     -0.22440     -0.11428     -0.13277
   
 Atom       C61          C62          C63          C64          C65     
 Charge   -0.13014     -0.19761     -0.04227     -0.17159     -0.20143
   
 Atom       C66          C67          C68          C69          C70     
 Charge    0.22714      0.03953     -0.14210     -0.14330     -0.25266
   
 Atom       N71          S72          O73          O74          C75     
 Charge   -0.19470      0.64284     -0.44285     -0.40649      0.51258
   
 Atom       C76          C77          C78          C79          N80     
 Charge   -0.36227      0.16755     -0.43336      0.38279     -0.60086
   
 Atom       N81          C82          C83          C84          C85     
 Charge    0.03017     -0.09653     -0.17335     -0.26862      0.05006
   
 Atom       H86          H87          H88          H89          H90     
 Charge    0.10422      0.15509      0.15033      0.18499      0.14064
   
 Atom       H91          H92          H93          H94          H95     
 Charge    0.11948      0.21829      0.17211      0.15547      0.13168
   
 Atom       H96          H97          H98          H99          H100    
 Charge    0.10830      0.14944      0.10168      0.14145     -0.02025
   
 Atom       H101         H102         H103         H104         H105    
 Charge    0.15871      0.07576      0.20394      0.12024      0.11867
   
 Atom       H106         H107         H108         H109         H110    
 Charge    0.12063      0.07790      0.13929      0.13045      0.14863
   
 Atom       H111         H112         H113         H114         H115    
 Charge    0.13894      0.13912      0.13265      0.14449      0.13661
   
 Atom       H116         H117         H118         H119         H120    
 Charge    0.13784      0.15713      0.09235      0.11978      0.14918
   
 Atom       H121         H122         H123         H124         H125    
 Charge    0.13561      0.14100      0.14044      0.14513      0.08251
   
 Atom       H126         H127         H128         H129         H130    
 Charge    0.16425      0.15972      0.03630      0.11080      0.15850
   
 Atom       H131         H132         H133         H134         H135    
 Charge    0.19696      0.18026      0.12150      0.19668      0.06285
   
 Atom       H136         H137         H138         H139         H140    
 Charge    0.26543      0.18179      0.17747      0.21331      0.13351
   
 Atom       S141         O142         C143         O144         F145    
 Charge    0.67162     -0.43397      0.39226     -0.45620     -0.07949
   
 Atom       F146         F147         H148    
 Charge   -0.14388     -0.13801      0.20768
  
  sum of atomic charges:     0.000000
   
 RMS Error   9.98E-04 hartrees
 
  Peak memory usage:    588 Mb
  
  end of program ch
   
 Time(ch)  user:       17.0  user+sys:       17.0  wallclock:       18.6
  
  start of program post
  
  Writing input files for PBF
  Peak memory usage:    536 Mb
  
  end of program post
   
 Time(post)  user:        0.0  user+sys:        0.0  wallclock:        0.3

  start of program pbf

Pbf Version 4.00

Molecular surface area:      827.33232   [A2]
Reaction field energy:       -20.12464   [kT]
  Peak memory usage: 559 Mb

  end of program pbf

 Time(pbf)  user:        8.9  user+sys:        9.0  wallclock:        9.7
  
  start of program solv
  
   number of surface charges from PBF   13506
   sum of surface charges     -0.00033
   
  nuclear repulsion energy.......   20978.023729394 hartrees
  Peak memory usage:    701 Mb
  
  end of program solv
   
 Time(solv)  user:       35.0  user+sys:       35.0  wallclock:       35.5
  
  start of program scf
  
  
       i  u  d  i  g                   
       t  p  i  c  r                                 RMS    maximum
       e  d  i  u  i                       energy  density   DIIS  
       r  t  s  t  d       total energy    change  change    error 
  
etot    1  N  N  1  U   -5575.59517468202           6.4E-06  1.1E-04
etot    2  N  N  1  U   -5575.59518495792  1.0E-05  0.0E+00  0.0E+00
  
  
 Energy components, in hartrees:
   (A)  Total zero-electron terms....   20981.57425640770
   (B)    Nuclear-nuclear............   20978.02372939356
   (C)    Nuclear-solvent............       3.55052701414
   (E)  Total one-electron terms.....  -49491.11367048997
   (F)    Electron-nuclear...........  -55023.59308123814
   (G)    Electron-solvent...........      -3.59259554769
   (H)    Kinetic....................    5536.07200629586
   (I)  Total two-electron terms.....   22933.94422912435
   (J)    Coulomb....................   23585.22231187832
   (K)    Exchange+Correlation.......    -651.27808275398
   (L)  Electronic energy............  -26557.16944136562  (E+I)
   (N)  Total quantum mech. energy...   -5575.59518495792  (A+L)
   (O)  Gas phase energy.............   -5575.55446289806
   (P)  Solution phase energy........   -5575.57415069114  (Q+R+S)
   (Q)    Total solute energy........   -5575.55311642436  (N-C-G)
   (R)    Total solvent energy.......      -0.02103426678  (C/2+G/2)
   (S)    Solute cavity energy.......       0.00000000000
   (U)  Reorganization energy........       0.00134647370  (Q-O)
   (V)  Solvation energy.............      -0.01968779308  (P-O)
  
 SCFE:  Solution phase energy: DFT(m06-2x)      -5575.57415069114 hartrees
        SCF iterations:   2
  
 
 HOMO energy:    -0.27479
 LUMO energy:    -0.06615
 
  Orbital energies (hartrees): 
   -73.38119   -72.37299   -69.07852   -68.98997   -63.09820   -37.64450
   -33.88593   -33.45213   -20.47954   -17.58479   -16.94706   -16.72100
   -16.45052   -15.84068   -14.86567   -14.16106   -14.10305   -13.71447
   -13.35826   -13.07449   -13.04648   -12.86017   -11.75759   -11.73269
   -11.39337   -11.19009   -11.18547   -11.06265   -10.97654   -10.84497
   -10.69515   -10.64434   -10.63159   -10.59058   -10.58665   -10.58027
   -10.57265   -10.57173   -10.56943   -10.56234   -10.56168   -10.56110
   -10.55430   -10.54855   -10.54770   -10.54313   -10.54124   -10.54069
   -10.53879   -10.53728   -10.53381   -10.53242   -10.53151   -10.52918
   -10.52894   -10.52866   -10.52447   -10.52180   -10.51727   -10.51591
   -10.51033   -10.50895   -10.50831   -10.50547   -10.50208   -10.50163
   -10.50037   -10.49456   -10.49347   -10.49295   -10.48795   -10.46200
   -10.44254   -10.44142   -10.38965   -10.38874   -10.33238   -10.32298
   -10.27378   -10.24708   -10.21070   -10.15292   -10.04603    -9.98270
    -9.93597    -9.89380    -9.84715    -9.52300    -9.50462    -9.39774
    -9.37079    -9.25219    -9.16392    -9.10591    -8.86153    -8.72198
    -8.48085    -8.47226    -8.20048    -8.19929    -7.88691    -7.23952
    -7.22322    -7.11725    -7.06167    -6.90169    -6.87965    -6.83831
    -6.56686    -6.42144    -5.05861    -4.23346    -1.45779    -1.35635
    -1.31074    -1.27025    -1.18459    -1.03524    -0.99148    -0.96001
    -0.95089    -0.94492    -0.93754    -0.91560    -0.90431    -0.90256
    -0.88463    -0.88432    -0.87761    -0.87719    -0.87020    -0.86233
    -0.84839    -0.84584    -0.83421    -0.83025    -0.82842    -0.82115
    -0.81678    -0.81493    -0.81237    -0.81042    -0.81040    -0.80398
    -0.80232    -0.79775    -0.79572    -0.79203    -0.78950    -0.78373
    -0.78250    -0.78147    -0.78007    -0.78004    -0.77689    -0.76935
    -0.76820    -0.76148    -0.76020    -0.75487    -0.75432    -0.75402
    -0.74706    -0.74618    -0.74389    -0.72916    -0.72549    -0.72063
    -0.71282    -0.71128    -0.70750    -0.70746    -0.70500    -0.70439
    -0.68529    -0.68304    -0.68242    -0.67536    -0.67280    -0.66781
    -0.66707    -0.65915    -0.65246    -0.64443    -0.64435    -0.64422
    -0.63950    -0.63931    -0.63152    -0.63124    -0.62903    -0.61919
    -0.60599    -0.60581    -0.60373    -0.59627    -0.59359    -0.59316
    -0.59303    -0.58897    -0.58831    -0.58618    -0.58089    -0.57947
    -0.57882    -0.57575    -0.57280    -0.57116    -0.57043    -0.56790
    -0.56629    -0.56572    -0.56562    -0.56497    -0.56459    -0.56335
    -0.56256    -0.56211    -0.56054    -0.55904    -0.55761    -0.55745
    -0.55049    -0.54916    -0.54730    -0.54701    -0.54470    -0.54444
    -0.54367    -0.54218    -0.54054    -0.53822    -0.53762    -0.53522
    -0.53483    -0.52952    -0.52772    -0.52363    -0.52357    -0.52334
    -0.52201    -0.52038    -0.51672    -0.51666    -0.51665    -0.51307
    -0.51201    -0.50726    -0.50336    -0.50330    -0.49945    -0.49795
    -0.49762    -0.49652    -0.49529    -0.49444    -0.49255    -0.49058
    -0.48996    -0.48799    -0.48578    -0.48570    -0.48558    -0.48554
    -0.48513    -0.48407    -0.48092    -0.48059    -0.48044    -0.47830
    -0.47810    -0.47761    -0.47680    -0.47492    -0.47377    -0.47186
    -0.46979    -0.46977    -0.46656    -0.46506    -0.46346    -0.46185
    -0.45796    -0.45701    -0.45680    -0.45327    -0.45285    -0.45277
    -0.45111    -0.44818    -0.44637    -0.44636    -0.44507    -0.44398
    -0.43978    -0.43970    -0.43813    -0.43793    -0.43741    -0.43579
    -0.43519    -0.43140    -0.43007    -0.42680    -0.42470    -0.42454
    -0.42374    -0.42265    -0.42164    -0.41984    -0.41917    -0.41728
    -0.41624    -0.41622    -0.41582    -0.41527    -0.41267    -0.41204
    -0.41162    -0.41142    -0.40960    -0.40705    -0.40602    -0.40306
    -0.40048    -0.39551    -0.39343    -0.39003    -0.38697    -0.37985
    -0.37715    -0.37391    -0.37117    -0.36805    -0.35843    -0.35512
    -0.33693    -0.33541    -0.32077    -0.27479    -0.06615    -0.01586
    -0.01557     0.00019     0.00461     0.01230     0.01492     0.01649
     0.01811     0.01924
 
  Peak memory usage:    859 Mb
  
  end of program scf
   
 Time(scf)  user:     2287.0  user+sys:     2295.0  wallclock:     2303.1
  
  start of program sole
  
    SCRF                   solvation energy
  iteration          Hartrees            kcal/mol
     0               0.0000000            0.0000
     1              -0.0184878          -11.6013
     2              -0.0196878          -12.3543
  
  solvation energy not yet converged... 
  
  Peak memory usage:    635 Mb
  
  end of program sole
   
 Time(sole)  user:        0.0  user+sys:        0.0  wallclock:        0.2
  
  start of program ch
  
  gridpoints used for charge fit        16518
    out of a possible maximum of        16518
  
   Electrostatic potential fitting constrained to reproduce
     total charge:                yes
     dipole moment:               no 
     traceless quadrupole moment: no 
     traceless octapole moment:   no 
  
  Atomic charges from electrostatic potential: 
   
 Atom       C1           C2           C3           C4           C5      
 Charge   -0.11053      0.00062     -0.18120      0.20321     -0.04218
   
 Atom       C6           C7           C8           C9           C10     
 Charge   -0.23898     -0.35816     -0.11421      0.15538     -0.07018
   
 Atom       C11          O12          Si13         C14          C15     
 Charge    0.04781     -0.19990     -0.09583      0.00066      0.17839
   
 Atom       C16          C17          C18          C19          C20     
 Charge    0.41575     -0.09980     -0.54692     -0.33924      0.11983
   
 Atom       Si21         O22          C23          C24          P25     
 Charge   -0.25748     -0.22074     -0.21432     -0.07606      0.58930
   
 Atom       O26          N27          C28          C29          C30     
 Charge   -0.50247     -0.40723      0.17711      0.13057      0.05635
   
 Atom       C31          C32          C33          C34          C35     
 Charge    0.32938      0.13170      0.15753     -0.07454     -0.20231
   
 Atom       C36          C37          C38          C39          C40     
 Charge   -0.16409     -0.20101     -0.01379     -0.23032     -0.13024
   
 Atom       C41          C42          C43          C44          C45     
 Charge   -0.29947     -0.05440     -0.20895     -0.18977     -0.12860
   
 Atom       C46          C47          C48          C49          C50     
 Charge   -0.19956     -0.11785     -0.16778     -0.13915     -0.15262
   
 Atom       C51          C52          C53          C54          C55     
 Charge   -0.11293     -0.19597     -0.11738     -0.12043     -0.26152
   
 Atom       C56          C57          C58          C59          C60     
 Charge   -0.04808     -0.10558     -0.22590     -0.11484     -0.13486
   
 Atom       C61          C62          C63          C64          C65     
 Charge   -0.13099     -0.19871     -0.04215     -0.17271     -0.19962
   
 Atom       C66          C67          C68          C69          C70     
 Charge    0.22526      0.04202     -0.14465     -0.14304     -0.24975
   
 Atom       N71          S72          O73          O74          C75     
 Charge   -0.19056      0.64177     -0.44501     -0.40886      0.51210
   
 Atom       C76          C77          C78          C79          N80     
 Charge   -0.36513      0.16873     -0.43355      0.38405     -0.60184
   
 Atom       N81          C82          C83          C84          C85     
 Charge    0.03299     -0.09829     -0.17298     -0.26806      0.04773
   
 Atom       H86          H87          H88          H89          H90     
 Charge    0.10462      0.15628      0.15126      0.18637      0.14184
   
 Atom       H91          H92          H93          H94          H95     
 Charge    0.11938      0.21837      0.17284      0.15669      0.13282
   
 Atom       H96          H97          H98          H99          H100    
 Charge    0.10829      0.14970      0.10161      0.14215     -0.01899
   
 Atom       H101         H102         H103         H104         H105    
 Charge    0.15949      0.07588      0.20313      0.12036      0.11783
   
 Atom       H106         H107         H108         H109         H110    
 Charge    0.12056      0.07729      0.14024      0.13209      0.14919
   
 Atom       H111         H112         H113         H114         H115    
 Charge    0.14006      0.14030      0.13375      0.14499      0.13739
   
 Atom       H116         H117         H118         H119         H120    
 Charge    0.13883      0.15725      0.09347      0.12061      0.15036
   
 Atom       H121         H122         H123         H124         H125    
 Charge    0.13673      0.14212      0.14133      0.14623      0.08311
   
 Atom       H126         H127         H128         H129         H130    
 Charge    0.16532      0.15977      0.03567      0.11087      0.15908
   
 Atom       H131         H132         H133         H134         H135    
 Charge    0.19677      0.18004      0.12251      0.19809      0.06352
   
 Atom       H136         H137         H138         H139         H140    
 Charge    0.26389      0.18249      0.17844      0.21408      0.13344
   
 Atom       S141         O142         C143         O144         F145    
 Charge    0.66844     -0.43375      0.39221     -0.45543     -0.07890
   
 Atom       F146         F147         H148    
 Charge   -0.14401     -0.13851      0.20514
  
  sum of atomic charges:     0.000000
   
 RMS Error   9.99E-04 hartrees
 
  Peak memory usage:    588 Mb
  
  end of program ch
   
 Time(ch)  user:       17.0  user+sys:       17.0  wallclock:       18.7
  
  start of program post
  
  Writing input files for PBF
  Peak memory usage:    536 Mb
  
  end of program post
   
 Time(post)  user:        0.0  user+sys:        0.0  wallclock:        0.2

  start of program pbf

Pbf Version 4.00

Molecular surface area:      827.33232   [A2]
Reaction field energy:       -20.45961   [kT]
  Peak memory usage: 559 Mb

  end of program pbf

 Time(pbf)  user:        8.2  user+sys:        8.3  wallclock:        8.3
  
  start of program solv
  
   number of surface charges from PBF   13506
   sum of surface charges     -0.00033
   
  nuclear repulsion energy.......   20978.023729394 hartrees
  Peak memory usage:    701 Mb
  
  end of program solv
   
 Time(solv)  user:       35.0  user+sys:       35.0  wallclock:       35.5
  
  start of program scf
  
  
       i  u  d  i  g                   
       t  p  i  c  r                                 RMS    maximum
       e  d  i  u  i                       energy  density   DIIS  
       r  t  s  t  d       total energy    change  change    error 
  
etot    1  N  N  1  U   -5575.59552866405           4.8E-06  9.8E-05
etot    2  N  N  1  U   -5575.59551538979 -1.3E-05  0.0E+00  0.0E+00
  
  
 Energy components, in hartrees:
   (A)  Total zero-electron terms....   20981.61677953592
   (B)    Nuclear-nuclear............   20978.02372939356
   (C)    Nuclear-solvent............       3.59305014235
   (E)  Total one-electron terms.....  -49491.27911627452
   (F)    Electron-nuclear...........  -55023.67550161686
   (G)    Electron-solvent...........      -3.63545035560
   (H)    Kinetic....................    5536.03183569794
   (I)  Total two-electron terms.....   22934.06682134881
   (J)    Coulomb....................   23585.33895707386
   (K)    Exchange+Correlation.......    -651.27213572504
   (L)  Electronic energy............  -26557.21229492571  (E+I)
   (N)  Total quantum mech. energy...   -5575.59551538979  (A+L)
   (O)  Gas phase energy.............   -5575.55446289806
   (P)  Solution phase energy........   -5575.57431528316  (Q+R+S)
   (Q)    Total solute energy........   -5575.55311517654  (N-C-G)
   (R)    Total solvent energy.......      -0.02120010662  (C/2+G/2)
   (S)    Solute cavity energy.......       0.00000000000
   (U)  Reorganization energy........       0.00134772152  (Q-O)
   (V)  Solvation energy.............      -0.01985238510  (P-O)
  
 SCFE:  Solution phase energy: DFT(m06-2x)      -5575.57431528316 hartrees
        SCF iterations:   2
  
 
 HOMO energy:    -0.24649
 LUMO energy:    -0.06531
 
  Orbital energies (hartrees): 
   -90.17484   -90.14108   -78.21106   -67.01071   -67.00752   -25.27912
   -25.27418   -25.27390   -19.69119   -19.69042   -19.65821   -19.65790
   -19.61656   -19.61141   -19.60933   -14.82139   -14.81911   -14.78799
   -14.74303   -10.79263   -10.66009   -10.62927   -10.62099   -10.61884
   -10.61690   -10.60526   -10.60393   -10.58395   -10.58224   -10.58188
   -10.57883   -10.57705   -10.57244   -10.57140   -10.56983   -10.56853
   -10.56773   -10.56585   -10.56584   -10.56454   -10.56214   -10.56047
   -10.55943   -10.55937   -10.55433   -10.55371   -10.55321   -10.55283
   -10.55137   -10.55117   -10.55116   -10.55111   -10.55064   -10.55055
   -10.55048   -10.55028   -10.55023   -10.55013   -10.54945   -10.54918
   -10.54879   -10.54841   -10.54800   -10.54799   -10.54740   -10.54718
   -10.54641   -10.54636   -10.54620   -10.54615   -10.54598   -10.54589
   -10.54506   -10.54442   -10.54238   -10.54195   -10.54128   -10.54119
   -10.54023   -10.53982   -10.53966   -10.53931   -10.53718   -10.53662
   -10.53611   -10.53502   -10.53472   -10.53393   -10.53304   -10.53182
   -10.52839   -10.52305    -8.48524    -8.45001    -6.99039    -6.40756
    -6.40663    -6.40541    -6.37186    -6.37149    -6.37128    -5.54156
    -5.53807    -5.10864    -5.10802    -5.10630    -3.85142    -3.85104
    -3.85081    -3.84782    -3.84760    -3.84744    -1.44366    -1.35341
    -1.35051    -1.25112    -1.22722    -1.20713    -1.18498    -1.13989
    -1.11454    -1.09389    -1.09246    -1.08054    -1.06372    -0.98220
    -0.97525    -0.97314    -0.96205    -0.94701    -0.94441    -0.94349
    -0.94093    -0.93444    -0.93171    -0.92031    -0.91898    -0.90547
    -0.90027    -0.89489    -0.88500    -0.87962    -0.85640    -0.84952
    -0.84533    -0.84358    -0.84203    -0.83745    -0.83604    -0.83510
    -0.83348    -0.83182    -0.82926    -0.82621    -0.82591    -0.82564
    -0.82344    -0.82184    -0.82080    -0.81934    -0.81270    -0.80197
    -0.79559    -0.76098    -0.75370    -0.73436    -0.72047    -0.71297
    -0.70564    -0.70149    -0.69756    -0.69649    -0.69219    -0.68757
    -0.68629    -0.67988    -0.67634    -0.67545    -0.67483    -0.67407
    -0.67353    -0.67099    -0.67011    -0.66835    -0.66694    -0.66607
    -0.66393    -0.66305    -0.65927    -0.65877    -0.65426    -0.64995
    -0.64476    -0.64407    -0.63743    -0.62258    -0.61977    -0.60942
    -0.60786    -0.60198    -0.59688    -0.58225    -0.58016    -0.57949
    -0.57760    -0.57500    -0.57356    -0.57176    -0.57017    -0.56865
    -0.56750    -0.55778    -0.55679    -0.55080    -0.54657    -0.54402
    -0.54369    -0.54038    -0.53901    -0.53793    -0.53546    -0.53323
    -0.53153    -0.52429    -0.51965    -0.51928    -0.51788    -0.51669
    -0.51579    -0.51399    -0.51300    -0.51121    -0.50936    -0.50934
    -0.50561    -0.50514    -0.50460    -0.50252    -0.50162    -0.50136
    -0.49930    -0.49814    -0.49484    -0.49299    -0.49224    -0.49163
    -0.49015    -0.48965    -0.48690    -0.48615    -0.48538    -0.48422
    -0.48320    -0.48232    -0.48091    -0.48034    -0.47877    -0.47810
    -0.47453    -0.47251    -0.47092    -0.47039    -0.46388    -0.46018
    -0.45727    -0.45283    -0.44984    -0.44896    -0.44688    -0.44625
    -0.44442    -0.44237    -0.43958    -0.43408    -0.43097    -0.42730
    -0.42635    -0.42496    -0.42301    -0.42219    -0.41985    -0.41934
    -0.41663    -0.41438    -0.41340    -0.41263    -0.40878    -0.40248
    -0.40242    -0.40031    -0.39854    -0.39663    -0.39478    -0.39282
    -0.39262    -0.38977    -0.38870    -0.38775    -0.38630    -0.38260
    -0.38072    -0.37891    -0.37500    -0.37142    -0.36951    -0.36334
    -0.35763    -0.35277    -0.35181    -0.34700    -0.34593    -0.34412
    -0.34126    -0.34054    -0.33975    -0.33664    -0.33546    -0.33284
    -0.33156    -0.32699    -0.32081    -0.31803    -0.31581    -0.30298
    -0.30273    -0.30247    -0.30173    -0.30031    -0.29969    -0.29739
    -0.29559    -0.29092    -0.28981    -0.28903    -0.28756    -0.28407
    -0.28256    -0.27647    -0.26941    -0.24649    -0.06531    -0.01551
    -0.01543     0.00034     0.00455     0.01258     0.01536     0.01664
     0.01829     0.01934
 
  Peak memory usage:    859 Mb
  
  end of program scf
   
 Time(scf)  user:     2275.0  user+sys:     2284.0  wallclock:     2295.9
  
  start of program sole
  
    SCRF                   solvation energy
  iteration          Hartrees            kcal/mol
     0               0.0000000            0.0000
     1              -0.0184878          -11.6013
     2              -0.0196878          -12.3543
     3              -0.0198524          -12.4576
  
  solvation energy not yet converged... 
  
  Peak memory usage:    635 Mb
  
  end of program sole
   
 Time(sole)  user:        0.0  user+sys:        0.0  wallclock:        0.2
  
  start of program ch
  
  gridpoints used for charge fit        16518
    out of a possible maximum of        16518
  
   Electrostatic potential fitting constrained to reproduce
     total charge:                yes
     dipole moment:               no 
     traceless quadrupole moment: no 
     traceless octapole moment:   no 
  
  Atomic charges from electrostatic potential: 
   
 Atom       C1           C2           C3           C4           C5      
 Charge   -0.11193     -0.00035     -0.17952      0.20463     -0.04463
   
 Atom       C6           C7           C8           C9           C10     
 Charge   -0.23766     -0.35637     -0.11419      0.15665     -0.07222
   
 Atom       C11          O12          Si13         C14          C15     
 Charge    0.04727     -0.20070     -0.09684      0.00087      0.17850
   
 Atom       C16          C17          C18          C19          C20     
 Charge    0.41641     -0.10209     -0.54616     -0.33874      0.11905
   
 Atom       Si21         O22          C23          C24          P25     
 Charge   -0.25919     -0.22188     -0.21109     -0.07509      0.59093
   
 Atom       O26          N27          C28          C29          C30     
 Charge   -0.50347     -0.40876      0.17560      0.13188      0.05545
   
 Atom       C31          C32          C33          C34          C35     
 Charge    0.32695      0.13279      0.15684     -0.07401     -0.20164
   
 Atom       C36          C37          C38          C39          C40     
 Charge   -0.16412     -0.20083     -0.01363     -0.22984     -0.12879
   
 Atom       C41          C42          C43          C44          C45     
 Charge   -0.30057     -0.05462     -0.21005     -0.18844     -0.12866
   
 Atom       C46          C47          C48          C49          C50     
 Charge   -0.19962     -0.11684     -0.16711     -0.13874     -0.15228
   
 Atom       C51          C52          C53          C54          C55     
 Charge   -0.11260     -0.19621     -0.11512     -0.11990     -0.26251
   
 Atom       C56          C57          C58          C59          C60     
 Charge   -0.04655     -0.10310     -0.22530     -0.11441     -0.13347
   
 Atom       C61          C62          C63          C64          C65     
 Charge   -0.13067     -0.19793     -0.04210     -0.17200     -0.20125
   
 Atom       C66          C67          C68          C69          C70     
 Charge    0.22605      0.04022     -0.14273     -0.14249     -0.25549
   
 Atom       N71          S72          O73          O74          C75     
 Charge   -0.19064      0.64029     -0.44481     -0.40610      0.51344
   
 Atom       C76          C77          C78          C79          N80     
 Charge   -0.36253      0.16827     -0.43401      0.38285     -0.60329
   
 Atom       N81          C82          C83          C84          C85     
 Charge    0.03059     -0.09523     -0.17318     -0.26792      0.04826
   
 Atom       H86          H87          H88          H89          H90     
 Charge    0.10436      0.15598      0.15079      0.18572      0.14160
   
 Atom       H91          H92          H93          H94          H95     
 Charge    0.11951      0.21836      0.17255      0.15609      0.13239
   
 Atom       H96          H97          H98          H99          H100    
 Charge    0.10824      0.14941      0.10148      0.14181     -0.01964
   
 Atom       H101         H102         H103         H104         H105    
 Charge    0.15914      0.07572      0.20331      0.12030      0.11801
   
 Atom       H106         H107         H108         H109         H110    
 Charge    0.12024      0.07717      0.14024      0.13182      0.14888
   
 Atom       H111         H112         H113         H114         H115    
 Charge    0.13973      0.13999      0.13347      0.14475      0.13675
   
 Atom       H116         H117         H118         H119         H120    
 Charge    0.13846      0.15763      0.09268      0.12012      0.15007
   
 Atom       H121         H122         H123         H124         H125    
 Charge    0.13644      0.14171      0.14115      0.14600      0.08297
   
 Atom       H126         H127         H128         H129         H130    
 Charge    0.16538      0.16028      0.03613      0.11069      0.15906
   
 Atom       H131         H132         H133         H134         H135    
 Charge    0.19759      0.17970      0.12261      0.19822      0.06385
   
 Atom       H136         H137         H138         H139         H140    
 Charge    0.26414      0.18196      0.17868      0.21427      0.13363
   
 Atom       S141         O142         C143         O144         F145    
 Charge    0.67023     -0.43202      0.39280     -0.45800     -0.07886
   
 Atom       F146         F147         H148    
 Charge   -0.14451     -0.13843      0.20559
  
  sum of atomic charges:     0.000000
   
 RMS Error   9.99E-04 hartrees
 
  Peak memory usage:    588 Mb
  
  end of program ch
   
 Time(ch)  user:       17.0  user+sys:       17.0  wallclock:       18.9
  
  start of program post
  
  Writing input files for PBF
  Peak memory usage:    536 Mb
  
  end of program post
   
 Time(post)  user:        0.0  user+sys:        0.0  wallclock:        0.2

  start of program pbf

Pbf Version 4.00

Molecular surface area:      827.33232   [A2]
Reaction field energy:       -20.44160   [kT]
  Peak memory usage: 559 Mb

  end of program pbf

 Time(pbf)  user:        8.5  user+sys:        8.6  wallclock:        8.6
  
  start of program solv
  
   number of surface charges from PBF   13506
   sum of surface charges     -0.00034
   
  nuclear repulsion energy.......   20978.023729394 hartrees
  Peak memory usage:    701 Mb
  
  end of program solv
   
 Time(solv)  user:       35.0  user+sys:       35.0  wallclock:       35.4
  
  start of program scf
  
  
       i  u  d  i  g                   
       t  p  i  c  r                                 RMS    maximum
       e  d  i  u  i                       energy  density   DIIS  
       r  t  s  t  d       total energy    change  change    error 
  
etot    1  N  N  1  U   -5575.59549413698           7.8E-06  1.7E-04
etot    2  N  N  1  U   -5575.59545645196 -3.8E-05  0.0E+00  0.0E+00
  
  
 Energy components, in hartrees:
   (A)  Total zero-electron terms....   20981.62665929160
   (B)    Nuclear-nuclear............   20978.02372939356
   (C)    Nuclear-solvent............       3.60292989804
   (E)  Total one-electron terms.....  -49490.93990962828
   (F)    Electron-nuclear...........  -55023.35385653007
   (G)    Electron-solvent...........      -3.64528559754
   (H)    Kinetic....................    5536.05923249933
   (I)  Total two-electron terms.....   22933.71779388472
   (J)    Coulomb....................   23584.99456454818
   (K)    Exchange+Correlation.......    -651.27677066347
   (L)  Electronic energy............  -26557.22211574356  (E+I)
   (N)  Total quantum mech. energy...   -5575.59545645196  (A+L)
   (O)  Gas phase energy.............   -5575.55446289806
   (P)  Solution phase energy........   -5575.57427860221  (Q+R+S)
   (Q)    Total solute energy........   -5575.55310075246  (N-C-G)
   (R)    Total solvent energy.......      -0.02117784975  (C/2+G/2)
   (S)    Solute cavity energy.......       0.00000000000
   (U)  Reorganization energy........       0.00136214561  (Q-O)
   (V)  Solvation energy.............      -0.01981570414  (P-O)
  
 SCFE:  Solution phase energy: DFT(m06-2x)      -5575.57427860221 hartrees
        SCF iterations:   2
  
 
 HOMO energy:    -0.24765
 LUMO energy:    -0.06666
 
  Orbital energies (hartrees): 
   -90.17567   -90.14113   -78.21346   -67.01197   -67.00961   -25.27788
   -25.27588   -25.27357   -19.69388   -19.69212   -19.65792   -19.65097
   -19.61925   -19.61069   -19.61026   -14.82475   -14.82304   -14.79142
   -14.74383   -10.79238   -10.66503   -10.62863   -10.62290   -10.62079
   -10.61720   -10.60768   -10.60550   -10.58591   -10.58309   -10.57939
   -10.57913   -10.57774   -10.57374   -10.57250   -10.57217   -10.57029
   -10.56702   -10.56672   -10.56535   -10.56399   -10.56353   -10.56337
   -10.56095   -10.55812   -10.55482   -10.55294   -10.55291   -10.55200
   -10.55133   -10.55129   -10.55073   -10.55070   -10.55036   -10.55025
   -10.55006   -10.55000   -10.54967   -10.54916   -10.54905   -10.54905
   -10.54845   -10.54828   -10.54738   -10.54735   -10.54724   -10.54670
   -10.54668   -10.54651   -10.54644   -10.54618   -10.54533   -10.54514
   -10.54505   -10.54385   -10.54277   -10.54245   -10.54222   -10.54126
   -10.53889   -10.53867   -10.53856   -10.53822   -10.53817   -10.53718
   -10.53658   -10.53577   -10.53558   -10.53513   -10.53443   -10.53319
   -10.52977   -10.52618    -8.48593    -8.45014    -6.99269    -6.40826
    -6.40732    -6.40612    -6.37198    -6.37160    -6.37140    -5.54277
    -5.54012    -5.11094    -5.11033    -5.10860    -3.85263    -3.85226
    -3.85203    -3.84987    -3.84965    -3.84949    -1.44367    -1.35296
    -1.35105    -1.25057    -1.22941    -1.20762    -1.18725    -1.13866
    -1.11593    -1.09461    -1.09392    -1.08166    -1.06624    -0.98349
    -0.97601    -0.97409    -0.96286    -0.94712    -0.94455    -0.94337
    -0.94111    -0.93439    -0.93216    -0.92002    -0.91959    -0.90603
    -0.90094    -0.89525    -0.88617    -0.88041    -0.85684    -0.85009
    -0.84577    -0.84407    -0.84248    -0.83747    -0.83608    -0.83518
    -0.83377    -0.83257    -0.82932    -0.82699    -0.82624    -0.82568
    -0.82390    -0.82219    -0.82096    -0.82000    -0.81291    -0.80267
    -0.79650    -0.76191    -0.75481    -0.73439    -0.72120    -0.71380
    -0.70651    -0.70243    -0.69827    -0.69701    -0.69315    -0.68868
    -0.68700    -0.67996    -0.67662    -0.67573    -0.67509    -0.67455
    -0.67388    -0.67153    -0.67053    -0.66851    -0.66706    -0.66624
    -0.66404    -0.66329    -0.65970    -0.65897    -0.65475    -0.65057
    -0.64565    -0.64473    -0.63866    -0.62362    -0.62057    -0.60955
    -0.60832    -0.60251    -0.59780    -0.58262    -0.58033    -0.57983
    -0.57812    -0.57534    -0.57387    -0.57222    -0.57084    -0.56902
    -0.56779    -0.55852    -0.55760    -0.55150    -0.54692    -0.54456
    -0.54409    -0.54139    -0.53909    -0.53847    -0.53617    -0.53356
    -0.53169    -0.52458    -0.52022    -0.51964    -0.51834    -0.51707
    -0.51627    -0.51443    -0.51325    -0.51169    -0.50978    -0.50976
    -0.50615    -0.50550    -0.50479    -0.50273    -0.50195    -0.50144
    -0.49971    -0.49846    -0.49521    -0.49369    -0.49269    -0.49181
    -0.49069    -0.49011    -0.48701    -0.48656    -0.48549    -0.48422
    -0.48379    -0.48302    -0.48100    -0.48071    -0.47929    -0.47871
    -0.47471    -0.47264    -0.47150    -0.47085    -0.46463    -0.46097
    -0.45718    -0.45300    -0.45026    -0.44923    -0.44746    -0.44677
    -0.44488    -0.44244    -0.44038    -0.43487    -0.43151    -0.42758
    -0.42658    -0.42537    -0.42386    -0.42228    -0.42030    -0.41968
    -0.41711    -0.41481    -0.41376    -0.41301    -0.40828    -0.40330
    -0.40276    -0.40060    -0.39892    -0.39645    -0.39493    -0.39301
    -0.39284    -0.38997    -0.38863    -0.38820    -0.38712    -0.38258
    -0.38139    -0.37934    -0.37572    -0.37252    -0.37039    -0.36282
    -0.35772    -0.35400    -0.35239    -0.34786    -0.34656    -0.34496
    -0.34188    -0.34143    -0.34047    -0.33757    -0.33605    -0.33359
    -0.33238    -0.32776    -0.32175    -0.31883    -0.31630    -0.30318
    -0.30287    -0.30274    -0.30191    -0.30045    -0.29995    -0.29778
    -0.29607    -0.29106    -0.29032    -0.28985    -0.28837    -0.28423
    -0.28296    -0.27746    -0.27058    -0.24765    -0.06666    -0.01653
    -0.01579    -0.00025     0.00455     0.01187     0.01457     0.01609
     0.01778     0.01896
 
  Peak memory usage:    859 Mb
  
  end of program scf
   
 Time(scf)  user:     2286.0  user+sys:     2294.0  wallclock:     2305.0
  
  start of program sole
  
    SCRF                   solvation energy
  iteration          Hartrees            kcal/mol
     0               0.0000000            0.0000
     1              -0.0184878          -11.6013
     2              -0.0196878          -12.3543
     3              -0.0198524          -12.4576
     4              -0.0198157          -12.4345
  
  stopping: solvation energy converged
  
  iterations:   4    sfinal:    -12.4345 kcal/mol
  
  Peak memory usage:    635 Mb
  
  end of program sole
   
 Time(sole)  user:        0.0  user+sys:        0.0  wallclock:        0.2
  
  start of program post
  
  Writing input files for PBF
  Peak memory usage:    536 Mb
  
  end of program post
   
 Time(post)  user:        0.0  user+sys:        0.0  wallclock:        0.2

 Total cpu seconds     user:   46039.000   user+sys:   46220.000
  
 Total elapsed time:    57554 seconds

Job Toru-SiPh3-NTf-Type-I-E-4-chkp-scan-unrestrained-uff-acc-sol-SPE completed on tethys at Tue Nov 15 06:16:52 2016
