Job Type-I-Z-sulfonyl-bind-2-unrestrained-2-SPE started on tethys at Mon Mar 13 15:18:41 2017
jobid: tethys-0-58c6b84f

  +--------------------------------------------------------------------+
  |  Jaguar version 9.5, release  11                                   |
  |                                                                    |
  |  Copyright Schrodinger, Inc.                                       |
  |  All Rights Reserved.                                              |
  |                                                                    |
  |  The following have contributed to Jaguar (listed alphabetically): |
  |  Mike Beachy, Art Bochevarov, Dale Braden, Yixiang Cao,            |
  |  Chris Cortis, Rich Friesner, Bill Goddard, Hod Greeley,           |
  |  Tom Hughes, Leif Jacobson, Jean-Marc Langlois,                    |
  |  Daniel Mainz, Rob Murphy, Dean Philipp, Tom Pollard,              |
  |  Murco Ringnalda, Mark Watson, Haoyu Yu.                           |
  |                                                                    |
  |  Use of this program should be acknowledged in publications as:    |
  |                                                                    |
  |  Jaguar, version 9.5, Schrodinger, Inc., New York, NY, 2017.       |
  |                                                                    |
  |  A. D. Bochevarov, E. Harder, T. F. Hughes, J. R. Greenwood,       |
  |  D. A. Braden, D. M. Philipp, D. Rinaldo, M. D. Halls,             |
  |  J. Zhang, R. A. Friesner, "Jaguar: A High-Performance Quantum     |
  |  Chemistry Software Program with Strengths in Life and Materials   |
  |  Sciences", Int. J. Quantum Chem., 2013, 113(18), 2110-2142.       |
  +--------------------------------------------------------------------+
  
  start of program pre
  
  Job name: Type-I-Z-sulfonyl-bind-2-unrestrained-2-SPE
  Executables used: /usr/local/shared/schrodinger/current/jaguar-v9.5/bin/Linux-x86_64
  Temporary files : /scratch/ab2144/Type-I-Z-sulfonyl-bind-2-unrestrained-2-SPE
  Maestro file (input):  Type-I-Z-sulfonyl-bind-2-unrestrained-2-SPE.mae
  Maestro file (output): Type-I-Z-sulfonyl-bind-2-unrestrained-2-SPE.01.mae
  
  basis set:             6-31g**                         
  net molecular charge:    0
  multiplicity:            1
  
  keygrid settings 
    wispc.....   7.500E-01
    ldens.....   0
    denspc....   7.500E-01
  
   grid     daf set  nls  grid set  Q type
  ------    -------  ---  --------  ------
  coarse       1      1       1        1
  medium       2      2       2        1
  fine         3      2       3        0
  ultrafine    4      2       4        1
  charge       0      1      -1        1
  gradient     5      2       4        1
  density      0      1       0        0
  DFT-fine     0      1     -13        0
  DFT-med.     0      1     -13        0
  DFT-grad     0      1     -13        0
  DFT-der2     0      1       0        0
  DFT-cphf     0      1       0        0
  LMP2-enrg    4      2       4        1
  LMP2-grad    5      2       2        1
  DFT-cphf2    0      1       0        0
  PBF-dens     0      1       0        0
  plotting     0      1       0        0
  Rel-grad     0      1     -17        0
  
  idftgrdm  100
  ndftgrdm   50    0    0
  idftgrdf  111
  ndftgrdf   85    0    0
  idftgrdg  111
  ndftgrdg   80    3    0
  idftgrdu  433
  ndftgrdu  105    0    0
  idftgrdd  433
  ndftgrdd  105    0    0
  idftgrdc  433
  ndftgrdc   26    0    0
  idftgrdp  433
  ndftgrdp   18    0    0
  
  number of basis functions....         1680
  
 Input geometry:
                                   angstroms
  atom               x                 y                 z
  C1           -3.2601000000      1.6276000000     -0.0667000000 
  C2           -3.0031000000      4.2129000000     -1.1950000000 
  C3           -1.7933000000      3.4800000000     -0.7638000000 
  C4           -1.9064000000      2.2165000000     -0.3063000000 
  H5           -2.9103000000      5.2006000000     -1.6264000000 
  C6           -3.7145000000     -2.2715000000      1.7244000000 
  C7           -3.0397000000     -2.1284000000      0.5751000000 
  C8           -2.7656000000     -0.7626000000      0.0550000000 
  C9           -3.3608000000      0.3088000000      0.6148000000 
  H10          -3.9196000000     -3.2589000000      2.1205000000 
  C11          -4.3589000000      2.2950000000     -0.4942000000 
  C12          -4.2128000000      3.6512000000     -1.0819000000 
  C13          -5.4259000000      4.3690000000     -1.5219000000 
  C14          -6.6284000000      3.7957000000     -1.4077000000 
  C15          -6.7837000000      2.4352000000     -0.8510000000 
  C16          -5.7308000000      1.7270000000     -0.4260000000 
  H17          -5.3498000000      5.3657000000     -1.9400000000 
  H18          -7.5089000000      4.3334000000     -1.7352000000 
  H19          -7.7743000000      2.0020000000     -0.7958000000 
  H20          -5.9022000000      0.7268000000     -0.0505000000 
  C21          -4.2251000000     -1.0876000000      2.4461000000 
  C22          -4.0741000000      0.1491000000      1.9169000000 
  C23          -4.5594000000      1.3277000000      2.6842000000 
  C24          -5.1711000000      1.1617000000      3.8626000000 
  C25          -5.3618000000     -0.1928000000      4.4157000000 
  C26          -4.9119000000     -1.2599000000      3.7468000000 
  H27          -4.4123000000      2.3310000000      2.3072000000 
  H28          -5.5209000000      2.0221000000      4.4182000000 
  H29          -5.8611000000     -0.3193000000      5.3676000000 
  H30          -5.0495000000     -2.2504000000      4.1624000000 
  Si31         -0.1211000000      4.3028000000     -0.9165000000 
  Si32         -2.5754000000     -3.6446000000     -0.4106000000 
  C33          -0.5691000000      8.7479000000     -2.3146000000 
  C34           0.1034000000      7.8815000000     -3.0816000000 
  C35           0.2512000000      6.4738000000     -2.6562000000 
  C36          -0.2992000000      6.0561000000     -1.5037000000 
  C37          -1.0326000000      7.0234000000     -0.6524000000 
  C38          -1.1627000000      8.2982000000     -1.0393000000 
  H39          -0.6768000000      9.7791000000     -2.6249000000 
  H40           0.5427000000      8.2100000000     -4.0146000000 
  H41           0.8142000000      5.8000000000     -3.2863000000 
  H42          -1.4687000000      6.7010000000      0.2851000000 
  H43          -1.7010000000      9.0023000000     -0.4182000000 
  C44           2.0625000000      4.6744000000      3.2113000000 
  C45           0.8465000000      4.1191000000      3.1580000000 
  C46           0.1444000000      3.9960000000      1.8638000000 
  C47           0.7350000000      4.4154000000      0.7313000000 
  C48           2.0778000000      5.0403000000      0.7999000000 
  C49           2.7085000000      5.1569000000      1.9746000000 
  H50           2.5722000000      4.7778000000      4.1600000000 
  H51           0.3704000000      3.7660000000      4.0636000000 
  H52          -0.8517000000      3.5775000000      1.8570000000 
  H53           2.5547000000      5.4041000000     -0.1018000000 
  H54           3.6904000000      5.6095000000      2.0218000000 
  C55           2.3335000000      1.7420000000     -3.9781000000 
  C56           1.1426000000      2.2461000000     -4.3209000000 
  C57           0.3740000000      3.0543000000     -3.3516000000 
  C58           0.8668000000      3.2896000000     -2.1236000000 
  C59           2.1782000000      2.7087000000     -1.7419000000 
  C60           2.8753000000      1.9847000000     -2.6265000000 
  H61           2.8981000000      1.1493000000     -4.6860000000 
  H62           0.7396000000      2.0637000000     -5.3086000000 
  H63          -0.5881000000      3.4539000000     -3.6482000000 
  H64           2.5780000000      2.8508000000     -0.7482000000 
  H65           3.8330000000      1.5662000000     -2.3516000000 
  C66          -2.0781000000     -2.3406000000     -4.8933000000 
  C67          -3.2709000000     -2.2523000000     -4.2957000000 
  C68          -3.4272000000     -2.6740000000     -2.8886000000 
  C69          -2.3782000000     -3.1600000000     -2.2022000000 
  C70          -1.0540000000     -3.2363000000     -2.8680000000 
  C71          -0.9158000000     -2.8539000000     -4.1436000000 
  H72          -1.9610000000     -2.0302000000     -5.9235000000 
  H73          -4.1241000000     -1.8688000000     -4.8401000000 
  H74          -4.3956000000     -2.5643000000     -2.4246000000 
  H75          -0.1859000000     -3.5797000000     -2.3280000000 
  H76           0.0492000000     -2.9121000000     -4.6284000000 
  C77          -6.1614000000     -6.6521000000     -0.0400000000 
  C78          -4.9095000000     -7.0929000000      0.1257000000 
  C79          -3.7719000000     -6.1561000000      0.0132000000 
  C80          -3.9855000000     -4.8594000000     -0.2719000000 
  C81          -5.3797000000     -4.3751000000     -0.4324000000 
  C82          -6.4080000000     -5.2253000000     -0.3257000000 
  H83          -6.9952000000     -7.3371000000      0.0435000000 
  H84          -4.7263000000     -8.1373000000      0.3429000000 
  H85          -2.7762000000     -6.5434000000      0.1651000000 
  H86          -5.5787000000     -3.3263000000     -0.6068000000 
  H87          -7.4232000000     -4.8665000000     -0.4353000000 
  C88           1.3650000000     -5.5315000000      1.2974000000 
  C89           0.8338000000     -6.0061000000      0.1652000000 
  C90          -0.4073000000     -5.4142000000     -0.3754000000 
  C91          -1.0075000000     -4.3949000000      0.2632000000 
  C92          -0.4248000000     -3.8897000000      1.5282000000 
  C93           0.6999000000     -4.4272000000      2.0165000000 
  H94           2.2785000000     -5.9581000000      1.6907000000 
  H95           1.3165000000     -6.8183000000     -0.3626000000 
  H96          -0.8199000000     -5.8120000000     -1.2943000000 
  H97          -0.9088000000     -3.0918000000      2.0705000000 
  H98           1.1216000000     -4.0578000000      2.9422000000 
  O99          -0.7795000000      1.5422000000      0.0892000000 
  O100         -1.9136000000     -0.5917000000     -1.0057000000 
  P101         -0.4839000000      0.0856000000     -0.5874000000 
  O102          0.3393000000      0.1520000000     -1.8351000000 
  N103          4.0930000000     -1.3815000000      0.6142000000 
  H104          3.3628000000     -1.4198000000      1.3467000000 
  C105          4.2407000000     -2.4958000000     -0.1772000000 
  C106          7.2453000000     -2.7518000000     -3.2068000000 
  C107          6.5161000000     -1.5723000000     -3.0625000000 
  C108          5.5349000000     -1.4682000000     -2.0773000000 
  C109          5.2820000000     -2.5503000000     -1.2185000000 
  C110          6.0096000000     -3.7409000000     -1.3832000000 
  C111          6.9911000000     -3.8375000000     -2.3625000000 
  H112          8.0114000000     -2.8281000000     -3.9725000000 
  H113          6.7127000000     -0.7255000000     -3.7125000000 
  H114          4.9809000000     -0.5448000000     -1.9605000000 
  H115          5.8153000000     -4.5835000000     -0.7249000000 
  H116          7.5615000000     -4.7554000000     -2.4671000000 
  H117          4.0810000000     -3.4313000000      0.3572000000 
  N118          0.1088000000     -0.8254000000      0.6343000000 
  S119          1.0013000000     -0.2895000000      1.8186000000 
  O120          1.6709000000      1.0042000000      1.6122000000 
  O121          1.8548000000     -1.4009000000      2.3243000000 
  C122         -0.1604000000      0.0214000000      3.2548000000 
  F123         -0.7769000000     -1.1014000000      3.6377000000 
  F124          0.5416000000      0.5003000000      4.2907000000 
  F125         -1.0924000000      0.9222000000      2.9172000000 
  C126          2.4335000000     -2.7461000000     -1.1498000000 
  C127          2.6984000000     -3.9057000000     -1.9514000000 
  C128          2.7928000000     -3.5089000000     -3.2700000000 
  C129          2.4866000000     -2.1277000000     -3.2957000000 
  N130          2.2449000000     -1.6978000000     -2.0576000000 
  H131          1.8367000000     -2.7132000000     -0.2445000000 
  H132          2.9013000000     -4.8931000000     -1.5599000000 
  H133          3.0601000000     -4.1111000000     -4.1260000000 
  H134          2.4057000000     -1.4584000000     -4.1415000000 
  H135          1.6966000000     -0.8277000000     -1.8543000000 
  S136          5.2572000000     -0.1254000000      0.8925000000 
  O137          6.5933000000     -0.7090000000      0.7932000000 
  O138          4.9170000000      1.0583000000      0.1023000000 
  C139          4.3362000000      0.6374000000      5.2328000000 
  C140          4.8539000000     -0.5698000000      4.7553000000 
  N141          5.1160000000     -0.7843000000      3.4634000000 
  C142          4.8508000000      0.2124000000      2.6294000000 
  C143          4.3274000000      1.4541000000      2.9717000000 
  C144          4.0707000000      1.6619000000      4.3281000000 
  H145          4.1393000000      0.7618000000      6.2925000000 
  H146          5.0638000000     -1.3940000000      5.4325000000 
  H147          4.1091000000      2.1929000000      2.2123000000 
  H148          3.6582000000      2.6046000000      4.6693000000 
   
  principal moments of inertia:
        amu*angstrom^2:    22726.67629    23399.32377    31840.96754
                g*cm^2: 3.77385291E-36 3.88554864E-36 5.28731639E-36
   
  rotational constants:
               cm^(-1):      0.00074176      0.00072043      0.00052943
                   GHz:      0.02223726      0.02159802      0.01587197
   
  Molecular weight:    1308.28 amu
   
  Stoichiometry: Si2C73PN4H56S2O7F3
[running at reduced cpu priority]
  Molecular Point Group: C1      
  Point Group used: C1
  
  nuclear repulsion energy.......   20853.813157397 hartrees
 
 Non-default options chosen:
   SCF calculation type: DFT(m06-2x)                 
   DFT=M06-2X
   Solvation energy will be computed using PBF
     -solute cavity energy will not be included
     -surface area terms will not be included
   Highest accuracy cutoffs used in SCF
   Solvent: other                                                           
   Internal dielectric constant:    1.000
   Continuum dielectric constant:   2.380
   Solvent probe molecule radius:   2.760
  
 Temporary integer options set:
     73=  2
  
  atom       vdw   vdw2    cov     mass  grid  daf  charge   basis
  C1        1.949  1.900  0.770   12.000    Y    Y      Y    6-31g**
  C2        1.949  1.900  0.770   12.000    Y    Y      Y    6-31g**
  C3        1.949  1.900  0.770   12.000    Y    Y      Y    6-31g**
  C4        1.949  1.900  0.770   12.000    Y    Y      Y    6-31g**
  H5        1.597  1.150  0.320    1.008    Y    Y      Y    6-31g**
  C6        1.949  1.900  0.770   12.000    Y    Y      Y    6-31g**
  C7        1.949  1.900  0.770   12.000    Y    Y      Y    6-31g**
  C8        1.949  1.900  0.770   12.000    Y    Y      Y    6-31g**
  C9        1.949  1.900  0.770   12.000    Y    Y      Y    6-31g**
  H10       1.597  1.150  0.320    1.008    Y    Y      Y    6-31g**
  C11       1.949  1.900  0.770   12.000    Y    Y      Y    6-31g**
  C12       1.949  1.900  0.770   12.000    Y    Y      Y    6-31g**
  C13       1.949  1.900  0.770   12.000    Y    Y      Y    6-31g**
  C14       1.949  1.900  0.770   12.000    Y    Y      Y    6-31g**
  C15       1.949  1.900  0.770   12.000    Y    Y      Y    6-31g**
  C16       1.949  1.900  0.770   12.000    Y    Y      Y    6-31g**
  H17       1.597  1.150  0.320    1.008    Y    Y      Y    6-31g**
  H18       1.597  1.150  0.320    1.008    Y    Y      Y    6-31g**
  H19       1.597  1.150  0.320    1.008    Y    Y      Y    6-31g**
  H20       1.597  1.150  0.320    1.008    Y    Y      Y    6-31g**
  C21       1.949  1.900  0.770   12.000    Y    Y      Y    6-31g**
  C22       1.949  1.900  0.770   12.000    Y    Y      Y    6-31g**
  C23       1.949  1.900  0.770   12.000    Y    Y      Y    6-31g**
  C24       1.949  1.900  0.770   12.000    Y    Y      Y    6-31g**
  C25       1.949  1.900  0.770   12.000    Y    Y      Y    6-31g**
  C26       1.949  1.900  0.770   12.000    Y    Y      Y    6-31g**
  H27       1.597  1.150  0.320    1.008    Y    Y      Y    6-31g**
  H28       1.597  1.150  0.320    1.008    Y    Y      Y    6-31g**
  H29       1.597  1.150  0.320    1.008    Y    Y      Y    6-31g**
  H30       1.597  1.150  0.320    1.008    Y    Y      Y    6-31g**
  Si31      2.217  2.147  1.110   27.977    Y    Y      Y    6-31g**
  Si32      2.217  2.147  1.110   27.977    Y    Y      Y    6-31g**
  C33       1.949  1.900  0.770   12.000    Y    Y      Y    6-31g**
  C34       1.949  1.900  0.770   12.000    Y    Y      Y    6-31g**
  C35       1.949  1.900  0.770   12.000    Y    Y      Y    6-31g**
  C36       1.949  1.900  0.770   12.000    Y    Y      Y    6-31g**
  C37       1.949  1.900  0.770   12.000    Y    Y      Y    6-31g**
  C38       1.949  1.900  0.770   12.000    Y    Y      Y    6-31g**
  H39       1.597  1.150  0.320    1.008    Y    Y      Y    6-31g**
  H40       1.597  1.150  0.320    1.008    Y    Y      Y    6-31g**
  H41       1.597  1.150  0.320    1.008    Y    Y      Y    6-31g**
  H42       1.597  1.150  0.320    1.008    Y    Y      Y    6-31g**
  H43       1.597  1.150  0.320    1.008    Y    Y      Y    6-31g**
  C44       1.949  1.900  0.770   12.000    Y    Y      Y    6-31g**
  C45       1.949  1.900  0.770   12.000    Y    Y      Y    6-31g**
  C46       1.949  1.900  0.770   12.000    Y    Y      Y    6-31g**
  C47       1.949  1.900  0.770   12.000    Y    Y      Y    6-31g**
  C48       1.949  1.900  0.770   12.000    Y    Y      Y    6-31g**
  C49       1.949  1.900  0.770   12.000    Y    Y      Y    6-31g**
  H50       1.597  1.150  0.320    1.008    Y    Y      Y    6-31g**
  H51       1.597  1.150  0.320    1.008    Y    Y      Y    6-31g**
  H52       1.597  1.150  0.320    1.008    Y    Y      Y    6-31g**
  H53       1.597  1.150  0.320    1.008    Y    Y      Y    6-31g**
  H54       1.597  1.150  0.320    1.008    Y    Y      Y    6-31g**
  C55       1.949  1.900  0.770   12.000    Y    Y      Y    6-31g**
  C56       1.949  1.900  0.770   12.000    Y    Y      Y    6-31g**
  C57       1.949  1.900  0.770   12.000    Y    Y      Y    6-31g**
  C58       1.949  1.900  0.770   12.000    Y    Y      Y    6-31g**
  C59       1.949  1.900  0.770   12.000    Y    Y      Y    6-31g**
  C60       1.949  1.900  0.770   12.000    Y    Y      Y    6-31g**
  H61       1.597  1.150  0.320    1.008    Y    Y      Y    6-31g**
  H62       1.597  1.150  0.320    1.008    Y    Y      Y    6-31g**
  H63       1.597  1.150  0.320    1.008    Y    Y      Y    6-31g**
  H64       1.597  1.150  0.320    1.008    Y    Y      Y    6-31g**
  H65       1.597  1.150  0.320    1.008    Y    Y      Y    6-31g**
  C66       1.949  1.900  0.770   12.000    Y    Y      Y    6-31g**
  C67       1.949  1.900  0.770   12.000    Y    Y      Y    6-31g**
  C68       1.949  1.900  0.770   12.000    Y    Y      Y    6-31g**
  C69       1.949  1.900  0.770   12.000    Y    Y      Y    6-31g**
  C70       1.949  1.900  0.770   12.000    Y    Y      Y    6-31g**
  C71       1.949  1.900  0.770   12.000    Y    Y      Y    6-31g**
  H72       1.597  1.150  0.320    1.008    Y    Y      Y    6-31g**
  H73       1.597  1.150  0.320    1.008    Y    Y      Y    6-31g**
  H74       1.597  1.150  0.320    1.008    Y    Y      Y    6-31g**
  H75       1.597  1.150  0.320    1.008    Y    Y      Y    6-31g**
  H76       1.597  1.150  0.320    1.008    Y    Y      Y    6-31g**
  C77       1.949  1.900  0.770   12.000    Y    Y      Y    6-31g**
  C78       1.949  1.900  0.770   12.000    Y    Y      Y    6-31g**
  C79       1.949  1.900  0.770   12.000    Y    Y      Y    6-31g**
  C80       1.949  1.900  0.770   12.000    Y    Y      Y    6-31g**
  C81       1.949  1.900  0.770   12.000    Y    Y      Y    6-31g**
  C82       1.949  1.900  0.770   12.000    Y    Y      Y    6-31g**
  H83       1.597  1.150  0.320    1.008    Y    Y      Y    6-31g**
  H84       1.597  1.150  0.320    1.008    Y    Y      Y    6-31g**
  H85       1.597  1.150  0.320    1.008    Y    Y      Y    6-31g**
  H86       1.597  1.150  0.320    1.008    Y    Y      Y    6-31g**
  H87       1.597  1.150  0.320    1.008    Y    Y      Y    6-31g**
  C88       1.949  1.900  0.770   12.000    Y    Y      Y    6-31g**
  C89       1.949  1.900  0.770   12.000    Y    Y      Y    6-31g**
  C90       1.949  1.900  0.770   12.000    Y    Y      Y    6-31g**
  C91       1.949  1.900  0.770   12.000    Y    Y      Y    6-31g**
  C92       1.949  1.900  0.770   12.000    Y    Y      Y    6-31g**
  C93       1.949  1.900  0.770   12.000    Y    Y      Y    6-31g**
  H94       1.597  1.150  0.320    1.008    Y    Y      Y    6-31g**
  H95       1.597  1.150  0.320    1.008    Y    Y      Y    6-31g**
  H96       1.597  1.150  0.320    1.008    Y    Y      Y    6-31g**
  H97       1.597  1.150  0.320    1.008    Y    Y      Y    6-31g**
  H98       1.597  1.150  0.320    1.008    Y    Y      Y    6-31g**
  O99       1.702  1.600  0.730   15.995    Y    Y      Y    6-31g**
  O100      1.702  1.600  0.730   15.995    Y    Y      Y    6-31g**
  P101      2.147  2.074  1.060   30.974    Y    Y      Y    6-31g**
  O102      1.702  1.600  0.730   15.995    Y    Y      Y    6-31g**
  N103      1.831  1.600  0.750   14.003    Y    Y      Y    6-31g**
  H104      1.597  1.150  0.320    1.008    Y    Y      Y    6-31g**
  C105      1.949  1.900  0.770   12.000    Y    Y      Y    6-31g**
  C106      1.949  1.900  0.770   12.000    Y    Y      Y    6-31g**
  C107      1.949  1.900  0.770   12.000    Y    Y      Y    6-31g**
  C108      1.949  1.900  0.770   12.000    Y    Y      Y    6-31g**
  C109      1.949  1.900  0.770   12.000    Y    Y      Y    6-31g**
  C110      1.949  1.900  0.770   12.000    Y    Y      Y    6-31g**
  C111      1.949  1.900  0.770   12.000    Y    Y      Y    6-31g**
  H112      1.597  1.150  0.320    1.008    Y    Y      Y    6-31g**
  H113      1.597  1.150  0.320    1.008    Y    Y      Y    6-31g**
  H114      1.597  1.150  0.320    1.008    Y    Y      Y    6-31g**
  H115      1.597  1.150  0.320    1.008    Y    Y      Y    6-31g**
  H116      1.597  1.150  0.320    1.008    Y    Y      Y    6-31g**
  H117      1.597  1.150  0.320    1.008    Y    Y      Y    6-31g**
  N118      1.831  1.600  0.750   14.003    Y    Y      Y    6-31g**
  S119      2.070  1.900  1.020   31.972    Y    Y      Y    6-31g**
  O120      1.702  1.600  0.730   15.995    Y    Y      Y    6-31g**
  O121      1.702  1.600  0.730   15.995    Y    Y      Y    6-31g**
  C122      1.949  1.900  0.770   12.000    Y    Y      Y    6-31g**
  F123      1.736  1.682  0.720   18.998    Y    Y      Y    6-31g**
  F124      1.736  1.682  0.720   18.998    Y    Y      Y    6-31g**
  F125      1.736  1.682  0.720   18.998    Y    Y      Y    6-31g**
  C126      1.949  1.900  0.770   12.000    Y    Y      Y    6-31g**
  C127      1.949  1.900  0.770   12.000    Y    Y      Y    6-31g**
  C128      1.949  1.900  0.770   12.000    Y    Y      Y    6-31g**
  C129      1.949  1.900  0.770   12.000    Y    Y      Y    6-31g**
  N130      1.831  1.600  0.750   14.003    Y    Y      Y    6-31g**
  H131      1.597  1.150  0.320    1.008    Y    Y      Y    6-31g**
  H132      1.597  1.150  0.320    1.008    Y    Y      Y    6-31g**
  H133      1.597  1.150  0.320    1.008    Y    Y      Y    6-31g**
  H134      1.597  1.150  0.320    1.008    Y    Y      Y    6-31g**
  H135      1.597  1.150  0.320    1.008    Y    Y      Y    6-31g**
  S136      2.070  1.900  1.020   31.972    Y    Y      Y    6-31g**
  O137      1.702  1.600  0.730   15.995    Y    Y      Y    6-31g**
  O138      1.702  1.600  0.730   15.995    Y    Y      Y    6-31g**
  C139      1.949  1.900  0.770   12.000    Y    Y      Y    6-31g**
  C140      1.949  1.900  0.770   12.000    Y    Y      Y    6-31g**
  N141      1.831  1.600  0.750   14.003    Y    Y      Y    6-31g**
  C142      1.949  1.900  0.770   12.000    Y    Y      Y    6-31g**
  C143      1.949  1.900  0.770   12.000    Y    Y      Y    6-31g**
  C144      1.949  1.900  0.770   12.000    Y    Y      Y    6-31g**
  H145      1.597  1.150  0.320    1.008    Y    Y      Y    6-31g**
  H146      1.597  1.150  0.320    1.008    Y    Y      Y    6-31g**
  H147      1.597  1.150  0.320    1.008    Y    Y      Y    6-31g**
  H148      1.597  1.150  0.320    1.008    Y    Y      Y    6-31g**
  
  Peak memory usage:    768 Mb
  
  end of program pre
   
 Time(pre)  user:        0.9  user+sys:        0.9  wallclock:        1.3
  
  start of program onee
  
  smallest eigenvalue of S:    2.206E-04
  number of canonical orbitals.....         1673
  Peak memory usage:    900 Mb
  
  end of program onee
   
 Time(onee)  user:       16.3  user+sys:       16.3  wallclock:       17.5
  
  start of program hfig
  
  initial wavefunction generated automatically from atomic wavefunctions
 
  Irreducible     Total no   No of occupied orbitals 
  representation  orbitals   Shell_1  Shell_2    ...
  No Symm         1673        340
  ------------------------
  Orbital occupation/shell    1.000
 
  Peak memory usage:    833 Mb
  
  end of program hfig
   
 Time(hfig)  user:       27.4  user+sys:       27.4  wallclock:       28.5
  
  start of program probe
  
  Peak memory usage:    826 Mb
  
  end of program probe
   
 Time(probe)  user:       19.3  user+sys:       19.3  wallclock:       19.8
  
  start of program grid
  
   grid     grid set  grid #  grid sym
  ------    --------  ------  --------
  coarse        0        0        1
  medium        2        1        1
  fine          0        0        1
  ultrafine     4        2        1
  charge       -1        3        1
  gradient      4        2        1
  density       0        0        1
  DFT-fine    -13        4        1
  DFT-med.    -13        4        1
  DFT-grad    -13        4        1
  DFT-der2      0        0        1
  DFT-cphf      0        0        1
  LMP2-enrg     4        2        1
  LMP2-grad     2        1        1
  DFT-cphf2     0        0        1
  PBF-dens      0        0        1
  plotting      0        0        1
  Rel-grad    -17        0        1
  
  number of gridpoints: 
     atom        C1       C2       C3       C4       H5       C6       C7
  grid # 1      100       94      101       97      110       92      101
  grid # 2      356      338      360      358      426      332      356
  grid # 3       14       29       16       19      175       12        7
  grid # 4    48124    48124    48124    48124    48426    48124    48124
   
  number of gridpoints: 
     atom        C8       C9      H10      C11      C12      C13      C14
  grid # 1       96      100      112      102      102       98       94
  grid # 2      358      354      429      359      367      340      338
  grid # 3       19        7      205       30       49       48       48
  grid # 4    48124    48124    48426    48124    48124    48124    48124
   
  number of gridpoints: 
     atom       C15      C16      H17      H18      H19      H20      C21
  grid # 1       95       97      118      118      118      111      101
  grid # 2      338      338      443      450      449      433      365
  grid # 3       41       32      361      417      411      227       29
  grid # 4    48124    48124    48426    48426    48426    48426    48124
   
  number of gridpoints: 
     atom       C22      C23      C24      C25      C26      H27      H28
  grid # 1      100       96       93       94       95      111      118
  grid # 2      357      336      336      335      336      434      453
  grid # 3        7       22       34       41       36      240      417
  grid # 4    48124    48124    48124    48124    48124    48426    48426
   
  number of gridpoints: 
     atom       H29      H30     Si31     Si32      C33      C34      C35
  grid # 1      118      118      467      475       94       94       92
  grid # 2      453      445      467      475      335      335      337
  grid # 3      423      356        6       12       46       44       27
  grid # 4    48426    48426    38542    38542    48124    48124    48124
   
  number of gridpoints: 
     atom       C36      C37      C38      H39      H40      H41      H42
  grid # 1      100       94       93      118      118      111      112
  grid # 2      359      334      335      453      453      437      437
  grid # 3       11       21       38      424      420      238      270
  grid # 4    48124    48124    48124    48426    48426    48426    48426
   
  number of gridpoints: 
     atom       H43      C44      C45      C46      C47      C48      C49
  grid # 1      118       93       93       92       99       94       93
  grid # 2      452      333      333      334      359      334      332
  grid # 3      419       29       30       15        9       21       29
  grid # 4    48426    48124    48124    48124    48124    48124    48124
   
  number of gridpoints: 
     atom       H50      H51      H52      H53      H54      C55      C56
  grid # 1      113      116      109      112      117       93       92
  grid # 2      439      444      425      436      452      332      333
  grid # 3      298      319      156      261      388       30       23
  grid # 4    48426    48426    48426    48426    48426    48124    48124
   
  number of gridpoints: 
     atom       C57      C58      C59      C60      H61      H62      H63
  grid # 1       92      100       96       93      115      117      112
  grid # 2      332      355      335      331      441      452      438
  grid # 3       10        8       19       27      293      377      257
  grid # 4    48124    48124    48124    48124    48426    48426    48426
   
  number of gridpoints: 
     atom       H64      H65      C66      C67      C68      C69      C70
  grid # 1      108      111       93       93       93      102       96
  grid # 2      420      425      336      336      335      359      335
  grid # 3      132      187       42       38       31       21       23
  grid # 4    48426    48426    48124    48124    48124    48124    48124
   
  number of gridpoints: 
     atom       C71      H72      H73      H74      H75      H76      C77
  grid # 1       93      118      118      111      107      111       94
  grid # 2      335      451      451      427      413      434      336
  grid # 3       36      400      411      192       93      238       48
  grid # 4    48124    48426    48426    48426    48426    48426    48124
   
  number of gridpoints: 
     atom       C78      C79      C80      C81      C82      H83      H84
  grid # 1       94       93      101       95       94      118      118
  grid # 2      336      338      361      334      337      453      452
  grid # 3       46       37       20       28       42      424      417
  grid # 4    48124    48124    48124    48124    48124    48426    48426
   
  number of gridpoints: 
     atom       H85      H86      H87      C88      C89      C90      C91
  grid # 1      111      110      118       93       93       92      101
  grid # 2      430      426      452      332      331      332      358
  grid # 3      231      186      420       28       21        8       14
  grid # 4    48426    48426    48426    48124    48124    48124    48124
   
  number of gridpoints: 
     atom       C92      C93      H94      H95      H96      H97      H98
  grid # 1       97       93      117      117      112      106      115
  grid # 2      334      332      448      443      430      416      438
  grid # 3       22       27      360      339      223      106      298
  grid # 4    48124    48124    48426    48426    48426    48426    48426
   
  number of gridpoints: 
     atom       O99     O100     P101     O102     N103     H104     C105
  grid # 1      112      112      444      116       99       99       91
  grid # 2      429      441      444      455      353      395      323
  grid # 3       21       64        6       67       13       58        7
  grid # 4    47716    47716    38640    47716    47928    48426    48124
   
  number of gridpoints: 
     atom      C106     C107     C108     C109     C110     C111     H112
  grid # 1       96       95       95      100       95       96      118
  grid # 2      333      334      328      358      335      333      450
  grid # 3       40       31       15        8       24       37      418
  grid # 4    48124    48124    48124    48124    48124    48124    48426
   
  number of gridpoints: 
     atom      H113     H114     H115     H116     H117     N118     S119
  grid # 1      118      106      113      118      108      106      431
  grid # 2      448      413      436      450      421      406      431
  grid # 3      380       93      294      416      148       16        7
  grid # 4    48426    48426    48426    48426    48426    47928    48492
   
  number of gridpoints: 
     atom      O120     O121     C122     F123     F124     F125     C126
  grid # 1      117      116       92      520      528      513       90
  grid # 2      470      460      322      520      528      513      322
  grid # 3       63       73        7      160      190       83        6
  grid # 4    47716    47716    48124    47062    47062    47062    48124
   
  number of gridpoints: 
     atom      C127     C128     C129     N130     H131     H132     H133
  grid # 1       94       93       94       98      105      110      116
  grid # 2      325      327      326      344      410      435      458
  grid # 3        7        8        6        7       73      193      395
  grid # 4    48124    48124    48124    47928    48426    48426    48426
   
  number of gridpoints: 
     atom      H134     H135     S136     O137     O138     C139     C140
  grid # 1      112      105      447      123      119       96       96
  grid # 2      436      401      447      508      478      331      338
  grid # 3      228       90       12      285      130       37       39
  grid # 4    48426    48426    48492    47716    47716    48124    48124
   
  number of gridpoints: 
     atom      N141     C142     C143     C144     H145     H146     H147
  grid # 1      113       98       96       96      117      118      110
  grid # 2      419      356      326      329      450      453      425
  grid # 3      111       28       32       34      406      446      171
  grid # 4    47928    48124    48124    48124    48426    48426    48426
   
  number of gridpoints: 
     atom      H148    total
  grid # 1      113    18376
  grid # 2      433    57863
  grid # 3      238    19257
  grid # 4    48426  7104526
   
  Peak memory usage:    795 Mb
  
  end of program grid
   
 Time(grid)  user:     1102.0  user+sys:     1102.0  wallclock:     1123.3
  
  start of program rwr
  
  Peak memory usage:    814 Mb
  
  end of program rwr
   
 Time(rwr)  user:       63.4  user+sys:       63.4  wallclock:       70.1
  
  start of program scf
  
 number of electrons..........        680
 number of alpha electrons....        340
 number of beta electrons.....        340
 number of orbitals, total....       1673
 number of doubly-occ'd orbs..        340
 number of open shell orbs....          0
 number of occupied orbitals..        340
 number of virtual orbitals...       1333
 number of hamiltonians.......          1
 number of shells.............          1
 SCF type: DFT=M06-2X
 Energy computed with NOPS off.
  
       i  u  d  i  g                   
       t  p  i  c  r                                 RMS    maximum
       e  d  i  u  i                       energy  density   DIIS  
       r  t  s  t  d       total energy    change  change    error 
  
etot    1  N  N  1  U   -5562.71238968672           3.8E-03  1.2E-01
etot    2  N  Y  1  U   -5532.44117551171 -3.0E+01  1.6E-02  1.3E-01
etot    3  N  Y  1  U   -5318.84039600100 -2.1E+02  1.5E-02  3.9E-01
etot    4  N  Y  1  U   -5568.87694297246  2.5E+02  2.4E-03  8.8E-02
etot    5  N  Y  1  U   -5573.51809081121  4.6E+00  1.5E-03  3.3E-02
etot    6  N  Y  1  U   -5572.85510293411 -6.6E-01  9.9E-04  4.9E-02
etot    7  N  Y  1  U   -5575.48461098114  2.6E+00  2.2E-04  7.5E-03
etot    8  N  Y  1  U   -5575.53157949629  4.7E-02  7.7E-05  4.0E-03
etot    9  N  Y  1  U   -5575.54069111088  9.1E-03  2.6E-05  1.3E-03
etot   10  N  Y  1  U   -5575.54179306038  1.1E-03  1.0E-05  3.6E-04
etot   11  N  Y  1  U   -5575.54194586803  1.5E-04  5.1E-06  1.5E-04
etot   12  N  N  1  U   -5575.54197520377  2.9E-05  0.0E+00  0.0E+00
  
  
 Energy components, in hartrees:
   (A)  Nuclear repulsion............   20853.81315739664
   (E)  Total one-electron terms.....  -49236.16711518707
   (F)    Electron-nuclear...........  -54772.16388175413
   (H)    Kinetic....................    5535.99676656708
   (I)  Total two-electron terms.....   22806.81198258666
   (J)    Coulomb....................   23458.05032435405
   (K)    Exchange+Correlation.......    -651.23834176739
   (L)  Electronic energy............  -26429.35513260041  (E+I)
   (M)  -V/T.........................       2.00714328608  (-(A+F+I)/H)
   (N)  Total energy.................   -5575.54197520377  (A+L)
   (O)  Gas phase energy.............   -5575.54197520377
  
 SCFE: SCF energy: DFT(m06-2x)     -5575.54197520377 hartrees   iterations:  12
  
 
 HOMO energy:    -0.25189
 LUMO energy:    -0.07292
 
  Orbital energies (hartrees): 
   -90.16571   -90.15102   -78.20349   -67.00931   -67.00041   -25.28997
   -25.28820   -25.28760   -19.68575   -19.68385   -19.64428   -19.64010
   -19.62779   -19.62173   -19.59502   -14.82386   -14.80796   -14.78335
   -14.73952   -10.80438   -10.66556   -10.62447   -10.62389   -10.62265
   -10.61892   -10.60476   -10.60164   -10.58448   -10.58292   -10.58238
   -10.57887   -10.57671   -10.57449   -10.57207   -10.57149   -10.57054
   -10.56933   -10.56916   -10.56893   -10.56834   -10.56683   -10.56497
   -10.56070   -10.55828   -10.55826   -10.55488   -10.55460   -10.55326
   -10.55322   -10.55191   -10.55159   -10.55151   -10.55100   -10.55089
   -10.55051   -10.54968   -10.54961   -10.54942   -10.54940   -10.54912
   -10.54796   -10.54702   -10.54595   -10.54480   -10.54478   -10.54444
   -10.54378   -10.54378   -10.54296   -10.54277   -10.54276   -10.54123
   -10.54059   -10.54017   -10.54003   -10.53964   -10.53943   -10.53939
   -10.53876   -10.53824   -10.53720   -10.53713   -10.53554   -10.53531
   -10.53459   -10.53403   -10.52920   -10.52789   -10.52719   -10.52675
   -10.52241   -10.51823    -8.47578    -8.45958    -6.98317    -6.39824
    -6.39675    -6.39616    -6.38140    -6.38113    -6.38095    -5.54042
    -5.53180    -5.10171    -5.10059    -5.09889    -3.85027    -3.84983
    -3.84972    -3.84155    -3.84132    -3.84104    -1.45497    -1.36454
    -1.36294    -1.23514    -1.22655    -1.21412    -1.18251    -1.12192
    -1.11506    -1.10033    -1.08032    -1.07654    -1.05725    -0.98662
    -0.97858    -0.97598    -0.96479    -0.94628    -0.94211    -0.93909
    -0.93374    -0.93330    -0.92611    -0.91991    -0.91780    -0.90887
    -0.90341    -0.89441    -0.88800    -0.87700    -0.85817    -0.85201
    -0.84630    -0.84382    -0.84050    -0.83599    -0.83484    -0.83297
    -0.83079    -0.82906    -0.82778    -0.82545    -0.82463    -0.82420
    -0.82351    -0.82090    -0.82002    -0.81607    -0.81462    -0.80538
    -0.79857    -0.75690    -0.75194    -0.73186    -0.72762    -0.71157
    -0.70671    -0.70630    -0.70135    -0.69700    -0.68992    -0.68806
    -0.68178    -0.68008    -0.67974    -0.67573    -0.67559    -0.67370
    -0.67297    -0.67164    -0.67007    -0.66918    -0.66668    -0.66515
    -0.66318    -0.65898    -0.65833    -0.65562    -0.65399    -0.64938
    -0.64758    -0.63987    -0.63424    -0.62353    -0.61005    -0.60773
    -0.60024    -0.59857    -0.59731    -0.58277    -0.58265    -0.58089
    -0.57845    -0.57708    -0.57369    -0.57232    -0.56866    -0.56835
    -0.56119    -0.55945    -0.55812    -0.55600    -0.55305    -0.54860
    -0.54483    -0.54190    -0.53783    -0.53494    -0.53307    -0.53124
    -0.52759    -0.52590    -0.52423    -0.52252    -0.52105    -0.51938
    -0.51711    -0.51637    -0.51339    -0.51234    -0.51097    -0.50861
    -0.50687    -0.50515    -0.50345    -0.50173    -0.50032    -0.49942
    -0.49835    -0.49756    -0.49653    -0.49475    -0.49282    -0.49269
    -0.49241    -0.49088    -0.48920    -0.48761    -0.48420    -0.48315
    -0.48286    -0.48224    -0.48111    -0.47851    -0.47785    -0.47767
    -0.47411    -0.47307    -0.47034    -0.46925    -0.46391    -0.46202
    -0.45549    -0.45225    -0.45020    -0.44874    -0.44842    -0.44554
    -0.44414    -0.44081    -0.43349    -0.43163    -0.42898    -0.42711
    -0.42454    -0.42344    -0.42209    -0.41979    -0.41941    -0.41843
    -0.41632    -0.41296    -0.41044    -0.41033    -0.40491    -0.39995
    -0.39750    -0.39560    -0.39340    -0.39205    -0.39088    -0.38979
    -0.38779    -0.38729    -0.38406    -0.38329    -0.38213    -0.37994
    -0.37806    -0.37520    -0.37410    -0.37259    -0.37257    -0.36067
    -0.35650    -0.35483    -0.35288    -0.34880    -0.34418    -0.34177
    -0.34130    -0.33931    -0.33903    -0.33478    -0.33370    -0.33118
    -0.32606    -0.32352    -0.32095    -0.31755    -0.31655    -0.30141
    -0.30078    -0.29937    -0.29894    -0.29675    -0.29625    -0.29142
    -0.28996    -0.28903    -0.28592    -0.28581    -0.28345    -0.28281
    -0.27933    -0.27724    -0.27074    -0.25189    -0.07292    -0.01616
    -0.01388    -0.00034     0.00724     0.01187     0.01347     0.01605
     0.02005     0.02029
 
  Peak memory usage:   1028 Mb
  
  end of program scf
   
 Time(scf)  user:    26138.3  user+sys:    26138.3  wallclock:    26476.8
  
  start of program ch
  
  gridpoints used for charge fit        16663
    out of a possible maximum of        19257
  
   Electrostatic potential fitting constrained to reproduce
     total charge:                yes
     dipole moment:               no 
     traceless quadrupole moment: no 
     traceless octapole moment:   no 
  
  Atomic charges from electrostatic potential: 
   
 Atom       C1           C2           C3           C4           H5      
 Charge   -0.22392     -0.35644      0.03462      0.17925      0.18551
   
 Atom       C6           C7           C8           C9           H10     
 Charge   -0.35624     -0.00674      0.07244      0.07584      0.19065
   
 Atom       C11          C12          C13          C14          C15     
 Charge    0.14582      0.17605     -0.22299     -0.11521     -0.15129
   
 Atom       C16          H17          H18          H19          H20     
 Charge   -0.16976      0.14400      0.13029      0.14028      0.12364
   
 Atom       C21          C22          C23          C24          C25     
 Charge    0.18093      0.02386     -0.15435     -0.16420     -0.10484
   
 Atom       C26          H27          H28          H29          H30     
 Charge   -0.22654      0.13222      0.14493      0.13072      0.14645
   
 Atom       Si31         Si32         C33          C34          C35     
 Charge   -0.07456      0.24846     -0.15381     -0.14294     -0.12017
   
 Atom       C36          C37          C38          H39          H40     
 Charge    0.10064     -0.21856     -0.08752      0.13307      0.13407
   
 Atom       H41          H42          H43          C44          C45     
 Charge    0.09285      0.13918      0.12110     -0.10398     -0.16093
   
 Atom       C46          C47          C48          C49          H50     
 Charge   -0.12921      0.13023     -0.16275     -0.14818      0.11335
   
 Atom       H51          H52          H53          H54          C55     
 Charge    0.12497      0.11856      0.12750      0.12814     -0.08151
   
 Atom       C56          C57          C58          C59          C60     
 Charge   -0.18470     -0.13095      0.21309     -0.25782     -0.13987
   
 Atom       H61          H62          H63          H64          H65     
 Charge    0.08670      0.13901      0.10958      0.16249      0.14109
   
 Atom       C66          C67          C68          C69          C70     
 Charge   -0.07536     -0.19308     -0.07088     -0.11348      0.02801
   
 Atom       C71          H72          H73          H74          H75     
 Charge   -0.20828      0.11889      0.13944      0.11439      0.03418
   
 Atom       H76          C77          C78          C79          C80     
 Charge    0.13597     -0.10204     -0.18842     -0.00858     -0.10728
   
 Atom       C81          C82          H83          H84          H85     
 Charge   -0.12134     -0.13242      0.12422      0.13977      0.05773
   
 Atom       H86          H87          C88          C89          C90     
 Charge    0.12328      0.12467     -0.10187     -0.25845      0.09447
   
 Atom       C91          C92          C93          H94          H95     
 Charge   -0.03807     -0.18139     -0.11644      0.12215      0.14136
   
 Atom       H96          H97          H98          O99          O100    
 Charge    0.05051      0.15159      0.12884     -0.25873     -0.20827
   
 Atom       P101         O102         N103         H104         C105    
 Charge    0.84265     -0.57050     -0.40068      0.40040     -0.13889
   
 Atom       C106         C107         C108         C109         C110    
 Charge   -0.08464     -0.23447      0.04776      0.31792     -0.21022
   
 Atom       C111         H112         H113         H114         H115    
 Charge   -0.17095      0.13805      0.15870      0.07922      0.14169
   
 Atom       H116         H117         N118         S119         O120    
 Charge    0.15420      0.15122     -0.50875      0.56663     -0.39299
   
 Atom       O121         C122         F123         F124         F125    
 Charge   -0.48320      0.40330     -0.12428     -0.13137     -0.10283
   
 Atom       C126         C127         C128         C129         N130    
 Charge   -0.08738     -0.16775     -0.17788     -0.13462     -0.23151
   
 Atom       H131         H132         H133         H134         H135    
 Charge    0.23101      0.16519      0.17752      0.22926      0.42224
   
 Atom       S136         O137         O138         C139         C140    
 Charge    0.54766     -0.39510     -0.39700     -0.45511      0.36160
   
 Atom       N141         C142         C143         C144         H145    
 Charge   -0.62148      0.65655     -0.49281      0.23503      0.19650
   
 Atom       H146         H147         H148    
 Charge    0.07147      0.22030      0.08164
  
  sum of atomic charges:    -0.000000
   
 RMS Error   1.02E-03 hartrees
 
  Peak memory usage:    816 Mb
  
  end of program ch
   
 Time(ch)  user:       16.9  user+sys:       16.9  wallclock:       19.5
  
  start of program post
  
  Writing input files for PBF
  Peak memory usage:    759 Mb
  
  end of program post
   
 Time(post)  user:        0.6  user+sys:        0.6  wallclock:        0.8

  start of program pbf

Pbf Version 4.10

Molecular surface area:      837.08230   [A2]
Reaction field energy:       -17.95021   [kT]
  Peak memory usage: 722 Mb

  end of program pbf

 Time(pbf)  user:        9.8  user+sys:        9.8  wallclock:        9.8
  
  start of program solv
  
   number of surface charges from PBF   13912
   sum of surface charges     -0.00035
   
  nuclear repulsion energy.......   20853.813157397 hartrees
  Peak memory usage:    894 Mb
  
  end of program solv
   
 Time(solv)  user:       33.4  user+sys:       33.4  wallclock:       33.5
  
  start of program scf
  
 Energy computed with NOPS off.
  
       i  u  d  i  g                   
       t  p  i  c  r                                 RMS    maximum
       e  d  i  u  i                       energy  density   DIIS  
       r  t  s  t  d       total energy    change  change    error 
  
etot    1  N  N  1  U   -5575.57944352294           5.5E-05  1.1E-03
etot    2  N  Y  1  U   -5575.58027278542  8.3E-04  1.8E-05  1.1E-03
etot    3  N  Y  1  U   -5575.58057326183  3.0E-04  5.7E-06  4.3E-04
etot    4  N  Y  1  U   -5575.58062602709  5.3E-05  2.6E-06  9.0E-05
etot    5  N  N  1  U   -5575.58063387134  7.8E-06  0.0E+00  0.0E+00
  
  
 Energy components, in hartrees:
   (A)  Total zero-electron terms....   20856.46073321437
   (B)    Nuclear-nuclear............   20853.81315739664
   (C)    Nuclear-solvent............       2.64757581772
   (E)  Total one-electron terms.....  -49240.34152784984
   (F)    Electron-nuclear...........  -54773.69709534562
   (G)    Electron-solvent...........      -2.68741401439
   (H)    Kinetic....................    5536.04298151017
   (I)  Total two-electron terms.....   22808.30016076412
   (J)    Coulomb....................   23459.55956302608
   (K)    Exchange+Correlation.......    -651.25940226195
   (L)  Electronic energy............  -26432.04136708571  (E+I)
   (N)  Total quantum mech. energy...   -5575.58063387134  (A+L)
   (O)  Gas phase energy.............   -5575.54197520377
   (P)  Solution phase energy........   -5575.56071477301  (Q+R+S)
   (Q)    Total solute energy........   -5575.54079567468  (N-C-G)
   (R)    Total solvent energy.......      -0.01991909833  (C/2+G/2)
   (S)    Solute cavity energy.......       0.00000000000
   (U)  Reorganization energy........       0.00117952909  (Q-O)
   (V)  Solvation energy.............      -0.01873956924  (P-O)
  
 SCFE:  Solution phase energy: DFT(m06-2x)      -5575.56071477301 hartrees
        SCF iterations:   5
  
 
 HOMO energy:    -0.25403
 LUMO energy:    -0.07184
 
  Orbital energies (hartrees): 
   -90.17261   -90.15411   -78.20564   -67.01117   -67.00347   -25.29365
   -25.29150   -25.29107   -19.68802   -19.68563   -19.64940   -19.64772
   -19.63227   -19.62539   -19.59774   -14.82300   -14.81066   -14.78624
   -14.74156   -10.80751   -10.66494   -10.62693   -10.62455   -10.62166
   -10.61998   -10.60422   -10.60156   -10.58270   -10.58203   -10.58109
   -10.57991   -10.57553   -10.57132   -10.57102   -10.57051   -10.56992
   -10.56975   -10.56829   -10.56659   -10.56625   -10.56506   -10.56368
   -10.56222   -10.56060   -10.56012   -10.55585   -10.55535   -10.55421
   -10.55309   -10.55278   -10.55244   -10.55239   -10.55228   -10.55200
   -10.55161   -10.55157   -10.55109   -10.55095   -10.55000   -10.54990
   -10.54960   -10.54853   -10.54832   -10.54762   -10.54751   -10.54638
   -10.54592   -10.54527   -10.54489   -10.54485   -10.54466   -10.54291
   -10.54278   -10.54237   -10.54184   -10.54177   -10.54148   -10.54125
   -10.54089   -10.54048   -10.54030   -10.54011   -10.53811   -10.53741
   -10.53652   -10.53626   -10.53299   -10.53173   -10.53051   -10.52899
   -10.52529   -10.52157    -8.48253    -8.46263    -6.98532    -6.40494
    -6.40359    -6.40291    -6.38445    -6.38418    -6.38400    -5.54226
    -5.53485    -5.10386    -5.10274    -5.10103    -3.85210    -3.85167
    -3.85157    -3.84460    -3.84437    -3.84410    -1.45841    -1.36819
    -1.36618    -1.24208    -1.22884    -1.21705    -1.18450    -1.12932
    -1.11390    -1.10368    -1.08246    -1.07897    -1.05928    -0.98893
    -0.98036    -0.97393    -0.96660    -0.94748    -0.94402    -0.94230
    -0.93606    -0.93604    -0.92963    -0.92130    -0.91835    -0.91060
    -0.90188    -0.89478    -0.88985    -0.87608    -0.85550    -0.85353
    -0.84513    -0.84442    -0.84288    -0.83788    -0.83579    -0.83534
    -0.83374    -0.83069    -0.82985    -0.82765    -0.82649    -0.82637
    -0.82563    -0.82294    -0.82267    -0.81945    -0.81775    -0.80637
    -0.80027    -0.75925    -0.75219    -0.73243    -0.72990    -0.71160
    -0.70846    -0.70433    -0.70273    -0.69855    -0.69038    -0.68816
    -0.68462    -0.68301    -0.68097    -0.67792    -0.67534    -0.67465
    -0.67370    -0.67298    -0.67229    -0.66874    -0.66809    -0.66728
    -0.66439    -0.66186    -0.65986    -0.65828    -0.65358    -0.65208
    -0.64919    -0.64036    -0.63616    -0.62503    -0.60974    -0.60903
    -0.60189    -0.60026    -0.59862    -0.58483    -0.58246    -0.58192
    -0.58019    -0.57843    -0.57550    -0.57383    -0.57113    -0.57059
    -0.56413    -0.56090    -0.55961    -0.55904    -0.55312    -0.54974
    -0.54594    -0.54166    -0.53929    -0.53719    -0.53667    -0.53355
    -0.52877    -0.52771    -0.52478    -0.52397    -0.52253    -0.51907
    -0.51844    -0.51723    -0.51441    -0.51417    -0.51307    -0.51000
    -0.50871    -0.50638    -0.50305    -0.50298    -0.50204    -0.50149
    -0.49940    -0.49766    -0.49626    -0.49520    -0.49487    -0.49411
    -0.49406    -0.49234    -0.49070    -0.48931    -0.48681    -0.48420
    -0.48389    -0.48316    -0.48140    -0.48018    -0.47857    -0.47558
    -0.47536    -0.47468    -0.47075    -0.46993    -0.46707    -0.46386
    -0.45564    -0.45340    -0.45189    -0.44984    -0.44789    -0.44746
    -0.44607    -0.44307    -0.43500    -0.43345    -0.43087    -0.42721
    -0.42641    -0.42578    -0.42406    -0.42306    -0.42144    -0.41922
    -0.41808    -0.41586    -0.41302    -0.41151    -0.40684    -0.40180
    -0.40009    -0.39688    -0.39492    -0.39471    -0.39340    -0.39289
    -0.39124    -0.38955    -0.38560    -0.38541    -0.38390    -0.38237
    -0.38060    -0.37841    -0.37756    -0.37669    -0.37478    -0.36302
    -0.35942    -0.35652    -0.35495    -0.35102    -0.34582    -0.34324
    -0.34279    -0.34231    -0.33924    -0.33766    -0.33520    -0.33400
    -0.32792    -0.32549    -0.32313    -0.31617    -0.31579    -0.30362
    -0.30289    -0.30233    -0.30133    -0.29994    -0.29816    -0.29438
    -0.29255    -0.29213    -0.28775    -0.28688    -0.28597    -0.28474
    -0.28316    -0.28003    -0.27271    -0.25403    -0.07184    -0.01830
    -0.01579    -0.00200     0.00659     0.01119     0.01291     0.01509
     0.01796     0.02030
 
  Peak memory usage:   1029 Mb
  
  end of program scf
   
 Time(scf)  user:     9131.5  user+sys:     9131.5  wallclock:     9242.9
  
  start of program sole
  
    SCRF                   solvation energy
  iteration          Hartrees            kcal/mol
     0               0.0000000            0.0000
     1              -0.0187396          -11.7593
  
  solvation energy not yet converged... 
  
  Peak memory usage:    813 Mb
  
  end of program sole
   
 Time(sole)  user:        0.1  user+sys:        0.1  wallclock:        0.1
  
  start of program ch
  
  gridpoints used for charge fit        16663
    out of a possible maximum of        16663
  
   Electrostatic potential fitting constrained to reproduce
     total charge:                yes
     dipole moment:               no 
     traceless quadrupole moment: no 
     traceless octapole moment:   no 
  
  Atomic charges from electrostatic potential: 
   
 Atom       C1           C2           C3           C4           H5      
 Charge   -0.23025     -0.37330      0.05507      0.16983      0.19235
   
 Atom       C6           C7           C8           C9           H10     
 Charge   -0.37022      0.01495      0.05490      0.07980      0.19908
   
 Atom       C11          C12          C13          C14          C15     
 Charge    0.14511      0.18159     -0.23457     -0.11954     -0.16236
   
 Atom       C16          H17          H18          H19          H20     
 Charge   -0.16686      0.15165      0.13837      0.14936      0.12412
   
 Atom       C21          C22          C23          C24          C25     
 Charge    0.18249      0.02534     -0.15940     -0.17071     -0.11257
   
 Atom       C26          H27          H28          H29          H30     
 Charge   -0.23220      0.13503      0.15267      0.13894      0.15295
   
 Atom       Si31         Si32         C33          C34          C35     
 Charge   -0.09620      0.23393     -0.16034     -0.15359     -0.12100
   
 Atom       C36          C37          C38          H39          H40     
 Charge    0.10472     -0.22404     -0.09409      0.14087      0.14254
   
 Atom       H41          H42          H43          C44          C45     
 Charge    0.09271      0.14355      0.12889     -0.11379     -0.16427
   
 Atom       C46          C47          C48          C49          H50     
 Charge   -0.13497      0.13515     -0.17118     -0.15195      0.12240
   
 Atom       H51          H52          H53          H54          C55     
 Charge    0.12864      0.11967      0.13046      0.13483     -0.09629
   
 Atom       C56          C57          C58          C59          C60     
 Charge   -0.18689     -0.13853      0.22686     -0.27274     -0.14137
   
 Atom       H61          H62          H63          H64          H65     
 Charge    0.09637      0.14602      0.11354      0.16859      0.14187
   
 Atom       C66          C67          C68          C69          C70     
 Charge   -0.07929     -0.20118     -0.08435     -0.11338      0.02732
   
 Atom       C71          H72          H73          H74          H75     
 Charge   -0.21484      0.12608      0.14736      0.12098      0.02977
   
 Atom       H76          C77          C78          C79          C80     
 Charge    0.13998     -0.10801     -0.19874     -0.00851     -0.11268
   
 Atom       C81          C82          H83          H84          H85     
 Charge   -0.12238     -0.14008      0.13213      0.14832      0.05832
   
 Atom       H86          H87          C88          C89          C90     
 Charge    0.12591      0.13243     -0.11258     -0.26725      0.09475
   
 Atom       C91          C92          C93          H94          H95     
 Charge   -0.02678     -0.20098     -0.11333      0.13228      0.15087
   
 Atom       H96          H97          H98          O99          O100    
 Charge    0.05314      0.15402      0.13006     -0.24596     -0.18529
   
 Atom       P101         O102         N103         H104         C105    
 Charge    0.80186     -0.55561     -0.39813      0.39946     -0.15424
   
 Atom       C106         C107         C108         C109         C110    
 Charge   -0.08886     -0.24145      0.03295      0.33381     -0.22368
   
 Atom       C111         H112         H113         H114         H115    
 Charge   -0.17523      0.14641      0.16581      0.08299      0.15150
   
 Atom       H116         H117         N118         S119         O120    
 Charge    0.16286      0.15834     -0.49022      0.54473     -0.38055
   
 Atom       O121         C122         F123         F124         F125    
 Charge   -0.47555      0.40292     -0.12508     -0.13256     -0.10037
   
 Atom       C126         C127         C128         C129         N130    
 Charge   -0.05058     -0.16808     -0.18164     -0.12198     -0.25386
   
 Atom       H131         H132         H133         H134         H135    
 Charge    0.21962      0.16930      0.18475      0.23502      0.42569
   
 Atom       S136         O137         O138         C139         C140    
 Charge    0.56278     -0.42270     -0.41386     -0.46029      0.37308
   
 Atom       N141         C142         C143         C144         H145    
 Charge   -0.65336      0.66929     -0.50631      0.24187      0.20694
   
 Atom       H146         H147         H148    
 Charge    0.08029      0.22437      0.08739
  
  sum of atomic charges:     0.000000
   
 RMS Error   1.03E-03 hartrees
 
  Peak memory usage:    816 Mb
  
  end of program ch
   
 Time(ch)  user:       16.6  user+sys:       16.6  wallclock:       17.9
  
  start of program post
  
  Writing input files for PBF
  Peak memory usage:    759 Mb
  
  end of program post
   
 Time(post)  user:        0.7  user+sys:        0.7  wallclock:        0.9

  start of program pbf

Pbf Version 4.10

Molecular surface area:      837.08230   [A2]
Reaction field energy:       -20.72493   [kT]
  Peak memory usage: 722 Mb

  end of program pbf

 Time(pbf)  user:       10.5  user+sys:       10.6  wallclock:       10.6
  
  start of program solv
  
   number of surface charges from PBF   13912
   sum of surface charges     -0.00037
   
  nuclear repulsion energy.......   20853.813157397 hartrees
  Peak memory usage:    894 Mb
  
  end of program solv
   
 Time(solv)  user:       33.4  user+sys:       33.4  wallclock:       33.5
  
  start of program scf
  
 Energy computed with NOPS off.
  
       i  u  d  i  g                   
       t  p  i  c  r                                 RMS    maximum
       e  d  i  u  i                       energy  density   DIIS  
       r  t  s  t  d       total energy    change  change    error 
  
etot    1  N  N  1  U   -5575.58357699572           6.6E-06  1.6E-04
etot    2  N  N  1  U   -5575.58357940088  2.4E-06  0.0E+00  0.0E+00
  
  
 Energy components, in hartrees:
   (A)  Total zero-electron terms....   20856.73052725472
   (B)    Nuclear-nuclear............   20853.81315739664
   (C)    Nuclear-solvent............       2.91736985808
   (E)  Total one-electron terms.....  -49241.01278812229
   (F)    Electron-nuclear...........  -54774.10588248108
   (G)    Electron-solvent...........      -2.96051453449
   (H)    Kinetic....................    5536.05360889328
   (I)  Total two-electron terms.....   22808.69868146669
   (J)    Coulomb....................   23459.96022161963
   (K)    Exchange+Correlation.......    -651.26154015295
   (L)  Electronic energy............  -26432.31410665560  (E+I)
   (N)  Total quantum mech. energy...   -5575.58357940088  (A+L)
   (O)  Gas phase energy.............   -5575.54197520377
   (P)  Solution phase energy........   -5575.56200706267  (Q+R+S)
   (Q)    Total solute energy........   -5575.54043472447  (N-C-G)
   (R)    Total solvent energy.......      -0.02157233820  (C/2+G/2)
   (S)    Solute cavity energy.......       0.00000000000
   (U)  Reorganization energy........       0.00154047930  (Q-O)
   (V)  Solvation energy.............      -0.02003185891  (P-O)
  
 SCFE:  Solution phase energy: DFT(m06-2x)      -5575.56200706267 hartrees
        SCF iterations:   2
  
 
 HOMO energy:    -0.27302
 LUMO energy:    -0.07126
 
  Orbital energies (hartrees): 
   -75.35768   -73.43347   -55.64834   -53.09296   -40.10818   -36.81506
   -30.52297   -27.38278   -26.63244   -25.64540   -20.70794   -19.21940
   -19.15603   -16.47004   -16.01593   -15.52901   -15.40090   -15.04376
   -13.96361   -13.81103   -13.74542   -13.66351   -13.33514   -13.14919
   -12.72554   -12.11420   -12.10305   -12.06796   -12.06553   -11.91816
   -11.70694   -11.70279   -11.47110   -11.45842   -11.40756   -11.37369
   -11.37081   -11.28089   -11.15731   -11.08608   -11.04756   -11.00734
   -10.93264   -10.90732   -10.87397   -10.82329   -10.80847   -10.74245
   -10.73420   -10.64716   -10.63295   -10.62801   -10.61603   -10.57542
   -10.55973   -10.55829   -10.55271   -10.54143   -10.53591   -10.53036
   -10.52504   -10.51747   -10.51684   -10.44984   -10.43810   -10.40018
   -10.36636   -10.36152   -10.35752   -10.33832   -10.32453   -10.30877
   -10.30371   -10.27949   -10.26856   -10.22927   -10.20417   -10.14050
   -10.06532   -10.05809   -10.03686   -10.03048    -9.97444    -9.96220
    -9.93444    -9.90402    -9.83031    -9.82618    -9.81695    -9.76948
    -9.76773    -9.73824    -9.73263    -9.72150    -9.68365    -9.63943
    -9.50273    -9.41056    -8.89720    -8.47914    -8.44252    -8.10547
    -7.85184    -7.60265    -6.95499    -6.89940    -6.88276    -6.45098
    -6.10516    -5.99556    -5.22258    -3.97756    -2.33194    -1.42187
    -1.30760    -1.25015    -1.21737    -1.10896    -1.08074    -0.99718
    -0.98175    -0.97177    -0.93482    -0.91082    -0.90005    -0.89415
    -0.89352    -0.88583    -0.88260    -0.88175    -0.87886    -0.87729
    -0.87720    -0.87311    -0.86786    -0.86267    -0.82297    -0.81078
    -0.81043    -0.80856    -0.80687    -0.80594    -0.80259    -0.80083
    -0.79779    -0.79607    -0.78772    -0.78596    -0.78302    -0.77344
    -0.77310    -0.77077    -0.76247    -0.76230    -0.75863    -0.75499
    -0.75373    -0.75309    -0.75282    -0.75216    -0.75211    -0.74653
    -0.73883    -0.73755    -0.73434    -0.73202    -0.73145    -0.72810
    -0.72674    -0.72531    -0.72529    -0.72421    -0.72326    -0.72309
    -0.72009    -0.71452    -0.71372    -0.70905    -0.70513    -0.70259
    -0.69879    -0.69355    -0.69165    -0.68442    -0.67837    -0.67325
    -0.66718    -0.66712    -0.66217    -0.66000    -0.65480    -0.65437
    -0.65096    -0.64999    -0.64934    -0.64647    -0.64533    -0.64426
    -0.64162    -0.63840    -0.62965    -0.62088    -0.61166    -0.60921
    -0.60626    -0.60279    -0.60222    -0.59932    -0.59400    -0.59214
    -0.59144    -0.58376    -0.58162    -0.58145    -0.57942    -0.57898
    -0.57672    -0.57290    -0.56830    -0.56546    -0.56270    -0.55869
    -0.55311    -0.55266    -0.54911    -0.54410    -0.54312    -0.53842
    -0.53592    -0.53449    -0.53227    -0.53014    -0.52734    -0.52505
    -0.52386    -0.52336    -0.51865    -0.51815    -0.51784    -0.51728
    -0.51692    -0.51483    -0.51450    -0.51410    -0.51263    -0.51108
    -0.51107    -0.51084    -0.50295    -0.50226    -0.50193    -0.49966
    -0.49895    -0.49607    -0.49574    -0.49272    -0.49119    -0.48751
    -0.48703    -0.48573    -0.48522    -0.48373    -0.48368    -0.47982
    -0.47854    -0.47758    -0.47582    -0.47561    -0.47552    -0.47486
    -0.47256    -0.47227    -0.47153    -0.47152    -0.47132    -0.47129
    -0.47045    -0.46524    -0.46460    -0.46373    -0.46349    -0.46287
    -0.46189    -0.46084    -0.45806    -0.45784    -0.45769    -0.45665
    -0.45255    -0.44819    -0.44727    -0.44484    -0.44393    -0.44389
    -0.44358    -0.44020    -0.43975    -0.43929    -0.43670    -0.43595
    -0.43485    -0.43281    -0.43122    -0.42833    -0.42789    -0.42776
    -0.42275    -0.42193    -0.42183    -0.42162    -0.42118    -0.41656
    -0.41592    -0.40263    -0.39888    -0.39609    -0.37927    -0.37643
    -0.36309    -0.36223    -0.35526    -0.34692    -0.33893    -0.33330
    -0.32795    -0.32142    -0.31272    -0.30881    -0.30771    -0.30440
    -0.30314    -0.30282    -0.30068    -0.29903    -0.29895    -0.29818
    -0.29568    -0.29463    -0.28808    -0.27302    -0.07126    -0.01821
    -0.01554    -0.00181     0.00677     0.01132     0.01320     0.01531
     0.01814     0.02045
 
  Peak memory usage:   1029 Mb
  
  end of program scf
   
 Time(scf)  user:     2295.9  user+sys:     2295.9  wallclock:     2327.3
  
  start of program sole
  
    SCRF                   solvation energy
  iteration          Hartrees            kcal/mol
     0               0.0000000            0.0000
     1              -0.0187396          -11.7593
     2              -0.0200319          -12.5702
  
  solvation energy not yet converged... 
  
  Peak memory usage:    813 Mb
  
  end of program sole
   
 Time(sole)  user:        0.1  user+sys:        0.1  wallclock:        0.1
  
  start of program ch
  
  gridpoints used for charge fit        16663
    out of a possible maximum of        16663
  
   Electrostatic potential fitting constrained to reproduce
     total charge:                yes
     dipole moment:               no 
     traceless quadrupole moment: no 
     traceless octapole moment:   no 
  
  Atomic charges from electrostatic potential: 
   
 Atom       C1           C2           C3           C4           H5      
 Charge   -0.23144     -0.37456      0.05612      0.16929      0.19299
   
 Atom       C6           C7           C8           C9           H10     
 Charge   -0.37028      0.01519      0.05391      0.07912      0.19966
   
 Atom       C11          C12          C13          C14          C15     
 Charge    0.14543      0.18247     -0.23554     -0.11893     -0.16200
   
 Atom       C16          H17          H18          H19          H20     
 Charge   -0.16746      0.15208      0.13892      0.14995      0.12418
   
 Atom       C21          C22          C23          C24          C25     
 Charge    0.18272      0.02545     -0.16032     -0.17017     -0.11229
   
 Atom       C26          H27          H28          H29          H30     
 Charge   -0.23223      0.13498      0.15309      0.13947      0.15326
   
 Atom       Si31         Si32         C33          C34          C35     
 Charge   -0.09752      0.23240     -0.15982     -0.15431     -0.12122
   
 Atom       C36          C37          C38          H39          H40     
 Charge    0.10440     -0.22479     -0.09396      0.14140      0.14313
   
 Atom       H41          H42          H43          C44          C45     
 Charge    0.09240      0.14377      0.12952     -0.11346     -0.16429
   
 Atom       C46          C47          C48          C49          H50     
 Charge   -0.13482      0.13346     -0.17226     -0.15124      0.12325
   
 Atom       H51          H52          H53          H54          C55     
 Charge    0.12890      0.11951      0.13013      0.13514     -0.09718
   
 Atom       C56          C57          C58          C59          C60     
 Charge   -0.18582     -0.13823      0.22594     -0.27439     -0.14192
   
 Atom       H61          H62          H63          H64          H65     
 Charge    0.09742      0.14668      0.11378      0.16903      0.14176
   
 Atom       C66          C67          C68          C69          C70     
 Charge   -0.07852     -0.20182     -0.08601     -0.11413      0.02668
   
 Atom       C71          H72          H73          H74          H75     
 Charge   -0.21375      0.12663      0.14793      0.12130      0.02888
   
 Atom       H76          C77          C78          C79          C80     
 Charge    0.13994     -0.10761     -0.19912     -0.00848     -0.11421
   
 Atom       C81          C82          H83          H84          H85     
 Charge   -0.12275     -0.14002      0.13266      0.14886      0.05826
   
 Atom       H86          H87          C88          C89          C90     
 Charge    0.12597      0.13299     -0.11342     -0.26632      0.09447
   
 Atom       C91          C92          C93          H94          H95     
 Charge   -0.02602     -0.20371     -0.11271      0.13323      0.15177
   
 Atom       H96          H97          H98          O99          O100    
 Charge    0.05343      0.15400      0.12989     -0.24539     -0.18335
   
 Atom       P101         O102         N103         H104         C105    
 Charge    0.79717     -0.55285     -0.39911      0.39973     -0.15568
   
 Atom       C106         C107         C108         C109         C110    
 Charge   -0.08803     -0.24188      0.03023      0.33349     -0.22522
   
 Atom       C111         H112         H113         H114         H115    
 Charge   -0.17393      0.14694      0.16606      0.08316      0.15252
   
 Atom       H116         H117         N118         S119         O120    
 Charge    0.16351      0.15843     -0.48884      0.54256     -0.37923
   
 Atom       O121         C122         F123         F124         F125    
 Charge   -0.47403      0.40292     -0.12514     -0.13216     -0.10035
   
 Atom       C126         C127         C128         C129         N130    
 Charge   -0.04480     -0.16694     -0.17914     -0.11765     -0.25698
   
 Atom       H131         H132         H133         H134         H135    
 Charge    0.21628      0.16923      0.18484      0.23473      0.42452
   
 Atom       S136         O137         O138         C139         C140    
 Charge    0.56102     -0.42528     -0.41341     -0.45753      0.37353
   
 Atom       N141         C142         C143         C144         H145    
 Charge   -0.65660      0.66674     -0.50696      0.24303      0.20788
   
 Atom       H146         H147         H148    
 Charge    0.08143      0.22442      0.08799
  
  sum of atomic charges:     0.000000
   
 RMS Error   1.03E-03 hartrees
 
  Peak memory usage:    816 Mb
  
  end of program ch
   
 Time(ch)  user:       16.6  user+sys:       16.6  wallclock:       18.5
  
  start of program post
  
  Writing input files for PBF
  Peak memory usage:    759 Mb
  
  end of program post
   
 Time(post)  user:        0.6  user+sys:        0.6  wallclock:        0.9

  start of program pbf

Pbf Version 4.10

Molecular surface area:      837.08230   [A2]
Reaction field energy:       -21.12065   [kT]
  Peak memory usage: 722 Mb

  end of program pbf

 Time(pbf)  user:       10.5  user+sys:       10.6  wallclock:       10.6
  
  start of program solv
  
   number of surface charges from PBF   13912
   sum of surface charges     -0.00037
   
  nuclear repulsion energy.......   20853.813157397 hartrees
  Peak memory usage:    894 Mb
  
  end of program solv
   
 Time(solv)  user:       33.7  user+sys:       33.7  wallclock:       33.8
  
  start of program scf
  
 Energy computed with NOPS off.
  
       i  u  d  i  g                   
       t  p  i  c  r                                 RMS    maximum
       e  d  i  u  i                       energy  density   DIIS  
       r  t  s  t  d       total energy    change  change    error 
  
etot    1  N  N  1  U   -5575.58397285708           5.8E-06  1.4E-04
etot    2  N  N  1  U   -5575.58395604172 -1.7E-05  0.0E+00  0.0E+00
  
  
 Energy components, in hartrees:
   (A)  Total zero-electron terms....   20856.78527712357
   (B)    Nuclear-nuclear............   20853.81315739664
   (C)    Nuclear-solvent............       2.97211972693
   (E)  Total one-electron terms.....  -49240.62953277100
   (F)    Electron-nuclear...........  -54773.64952580390
   (G)    Electron-solvent...........      -3.01550392401
   (H)    Kinetic....................    5536.03549695692
   (I)  Total two-electron terms.....   22808.26029960570
   (J)    Coulomb....................   23459.52015376010
   (K)    Exchange+Correlation.......    -651.25985415439
   (L)  Electronic energy............  -26432.36923316529  (E+I)
   (N)  Total quantum mech. energy...   -5575.58395604172  (A+L)
   (O)  Gas phase energy.............   -5575.54197520377
   (P)  Solution phase energy........   -5575.56226394318  (Q+R+S)
   (Q)    Total solute energy........   -5575.54057184464  (N-C-G)
   (R)    Total solvent energy.......      -0.02169209854  (C/2+G/2)
   (S)    Solute cavity energy.......       0.00000000000
   (U)  Reorganization energy........       0.00140335913  (Q-O)
   (V)  Solvation energy.............      -0.02028873941  (P-O)
  
 SCFE:  Solution phase energy: DFT(m06-2x)      -5575.56226394318 hartrees
        SCF iterations:   2
  
 
 HOMO energy:    -0.25453
 LUMO energy:    -0.07223
 
  Orbital energies (hartrees): 
   -90.17500   -90.15495   -78.20665   -67.01214   -67.00466   -25.29417
   -25.29176   -25.29152   -19.68934   -19.68649   -19.65041   -19.64970
   -19.63269   -19.62626   -19.59757   -14.82419   -14.81336   -14.78875
   -14.74291   -10.80797   -10.66677   -10.62939   -10.62578   -10.62125
   -10.62034   -10.60488   -10.60118   -10.58404   -10.58119   -10.58062
   -10.58020   -10.57399   -10.57178   -10.57115   -10.57112   -10.57109
   -10.57056   -10.56726   -10.56659   -10.56575   -10.56412   -10.56375
   -10.56237   -10.56077   -10.56036   -10.55617   -10.55519   -10.55377
   -10.55297   -10.55269   -10.55241   -10.55220   -10.55214   -10.55213
   -10.55211   -10.55185   -10.55123   -10.55091   -10.54968   -10.54967
   -10.54952   -10.54857   -10.54838   -10.54830   -10.54811   -10.54674
   -10.54655   -10.54589   -10.54580   -10.54563   -10.54440   -10.54348
   -10.54315   -10.54278   -10.54272   -10.54235   -10.54153   -10.54138
   -10.54107   -10.54088   -10.54057   -10.54010   -10.53910   -10.53761
   -10.53732   -10.53712   -10.53396   -10.53333   -10.53175   -10.53029
   -10.52695   -10.52307    -8.48484    -8.46346    -6.98630    -6.40725
    -6.40592    -6.40523    -6.38528    -6.38501    -6.38484    -5.54322
    -5.53604    -5.10485    -5.10373    -5.10201    -3.85306    -3.85264
    -3.85254    -3.84578    -3.84556    -3.84528    -1.45888    -1.36861
    -1.36668    -1.24403    -1.22981    -1.21787    -1.18554    -1.13115
    -1.11409    -1.10443    -1.08293    -1.08030    -1.06109    -0.98983
    -0.98096    -0.97420    -0.96697    -0.94777    -0.94430    -0.94286
    -0.93669    -0.93633    -0.93025    -0.92165    -0.91840    -0.91098
    -0.90181    -0.89525    -0.89038    -0.87646    -0.85557    -0.85386
    -0.84542    -0.84434    -0.84344    -0.83818    -0.83620    -0.83575
    -0.83425    -0.83096    -0.83037    -0.82813    -0.82692    -0.82673
    -0.82599    -0.82358    -0.82308    -0.82015    -0.81834    -0.80726
    -0.80073    -0.75995    -0.75286    -0.73285    -0.73051    -0.71231
    -0.70905    -0.70455    -0.70315    -0.69905    -0.69089    -0.68811
    -0.68498    -0.68353    -0.68119    -0.67833    -0.67573    -0.67500
    -0.67403    -0.67330    -0.67242    -0.66916    -0.66837    -0.66778
    -0.66460    -0.66248    -0.66015    -0.65879    -0.65405    -0.65272
    -0.64969    -0.64089    -0.63682    -0.62561    -0.61046    -0.60948
    -0.60249    -0.60090    -0.59906    -0.58544    -0.58302    -0.58230
    -0.58056    -0.57873    -0.57592    -0.57414    -0.57163    -0.57139
    -0.56464    -0.56132    -0.55995    -0.55950    -0.55357    -0.55035
    -0.54638    -0.54205    -0.53975    -0.53817    -0.53721    -0.53413
    -0.52930    -0.52805    -0.52512    -0.52444    -0.52273    -0.51955
    -0.51860    -0.51748    -0.51486    -0.51442    -0.51358    -0.51036
    -0.50921    -0.50685    -0.50347    -0.50324    -0.50233    -0.50179
    -0.49991    -0.49807    -0.49660    -0.49582    -0.49526    -0.49443
    -0.49439    -0.49264    -0.49119    -0.48990    -0.48741    -0.48446
    -0.48399    -0.48340    -0.48162    -0.48062    -0.47877    -0.47571
    -0.47558    -0.47440    -0.47115    -0.46988    -0.46773    -0.46432
    -0.45577    -0.45368    -0.45225    -0.45012    -0.44820    -0.44781
    -0.44645    -0.44353    -0.43591    -0.43398    -0.43135    -0.42801
    -0.42687    -0.42617    -0.42452    -0.42363    -0.42198    -0.41985
    -0.41857    -0.41645    -0.41349    -0.41195    -0.40734    -0.40227
    -0.40063    -0.39721    -0.39620    -0.39503    -0.39428    -0.39383
    -0.39159    -0.39003    -0.38601    -0.38587    -0.38435    -0.38296
    -0.38118    -0.37930    -0.37828    -0.37757    -0.37533    -0.36347
    -0.36015    -0.35691    -0.35557    -0.35170    -0.34637    -0.34398
    -0.34379    -0.34291    -0.33937    -0.33851    -0.33574    -0.33479
    -0.32840    -0.32619    -0.32387    -0.31658    -0.31590    -0.30397
    -0.30332    -0.30294    -0.30170    -0.30053    -0.29848    -0.29502
    -0.29282    -0.29281    -0.28822    -0.28739    -0.28664    -0.28522
    -0.28386    -0.28064    -0.27316    -0.25453    -0.07223    -0.01879
    -0.01653    -0.00244     0.00624     0.01064     0.01263     0.01475
     0.01750     0.01981
 
  Peak memory usage:   1029 Mb
  
  end of program scf
   
 Time(scf)  user:     2293.0  user+sys:     2293.0  wallclock:     2321.9
  
  start of program sole
  
    SCRF                   solvation energy
  iteration          Hartrees            kcal/mol
     0               0.0000000            0.0000
     1              -0.0187396          -11.7593
     2              -0.0200319          -12.5702
     3              -0.0202887          -12.7314
  
  solvation energy not yet converged... 
  
  Peak memory usage:    813 Mb
  
  end of program sole
   
 Time(sole)  user:        0.1  user+sys:        0.1  wallclock:        0.2
  
  start of program ch
  
  gridpoints used for charge fit        16663
    out of a possible maximum of        16663
  
   Electrostatic potential fitting constrained to reproduce
     total charge:                yes
     dipole moment:               no 
     traceless quadrupole moment: no 
     traceless octapole moment:   no 
  
  Atomic charges from electrostatic potential: 
   
 Atom       C1           C2           C3           C4           H5      
 Charge   -0.22992     -0.37470      0.05604      0.16983      0.19239
   
 Atom       C6           C7           C8           C9           H10     
 Charge   -0.37249      0.01808      0.05458      0.07968      0.19966
   
 Atom       C11          C12          C13          C14          C15     
 Charge    0.14448      0.18178     -0.23561     -0.11980     -0.16398
   
 Atom       C16          H17          H18          H19          H20     
 Charge   -0.16562      0.15215      0.13916      0.15026      0.12379
   
 Atom       C21          C22          C23          C24          C25     
 Charge    0.18223      0.02604     -0.15945     -0.17159     -0.11338
   
 Atom       C26          H27          H28          H29          H30     
 Charge   -0.23253      0.13488      0.15330      0.13973      0.15338
   
 Atom       Si31         Si32         C33          C34          C35     
 Charge   -0.09691      0.23280     -0.16094     -0.15443     -0.12111
   
 Atom       C36          C37          C38          H39          H40     
 Charge    0.10553     -0.22368     -0.09509      0.14157      0.14312
   
 Atom       H41          H42          H43          C44          C45     
 Charge    0.09215      0.14339      0.12961     -0.11526     -0.16450
   
 Atom       C46          C47          C48          C49          H50     
 Charge   -0.13610      0.13684     -0.17128     -0.15251      0.12352
   
 Atom       H51          H52          H53          H54          C55     
 Charge    0.12883      0.11979      0.12999      0.13522     -0.09853
   
 Atom       C56          C57          C58          C59          C60     
 Charge   -0.18717     -0.13985      0.22905     -0.27399     -0.14062
   
 Atom       H61          H62          H63          H64          H65     
 Charge    0.09750      0.14683      0.11364      0.16924      0.14099
   
 Atom       C66          C67          C68          C69          C70     
 Charge   -0.07987     -0.20156     -0.08518     -0.11290      0.02785
   
 Atom       C71          H72          H73          H74          H75     
 Charge   -0.21624      0.12678      0.14783      0.12108      0.02928
   
 Atom       H76          C77          C78          C79          C80     
 Charge    0.14040     -0.10856     -0.19959     -0.00874     -0.11261
   
 Atom       C81          C82          H83          H84          H85     
 Charge   -0.12170     -0.14109      0.13281      0.14892      0.05799
   
 Atom       H86          H87          C88          C89          C90     
 Charge    0.12572      0.13308     -0.11339     -0.26855      0.09396
   
 Atom       C91          C92          C93          H94          H95     
 Charge   -0.02455     -0.20245     -0.11300      0.13325      0.15205
   
 Atom       H96          H97          H98          O99          O100    
 Charge    0.05311      0.15406      0.12972     -0.24506     -0.18385
   
 Atom       P101         O102         N103         H104         C105    
 Charge    0.80035     -0.55573     -0.39307      0.39837     -0.15756
   
 Atom       C106         C107         C108         C109         C110    
 Charge   -0.09003     -0.24195      0.03119      0.33901     -0.22594
   
 Atom       C111         H112         H113         H114         H115    
 Charge   -0.17599      0.14732      0.16586      0.08375      0.15247
   
 Atom       H116         H117         N118         S119         O120    
 Charge    0.16389      0.15855     -0.48867      0.54253     -0.37907
   
 Atom       O121         C122         F123         F124         F125    
 Charge   -0.47459      0.40240     -0.12509     -0.13270     -0.09996
   
 Atom       C126         C127         C128         C129         N130    
 Charge   -0.04857     -0.16826     -0.18301     -0.12205     -0.25552
   
 Atom       H131         H132         H133         H134         H135    
 Charge    0.21953      0.16995      0.18611      0.23568      0.42695
   
 Atom       S136         O137         O138         C139         C140    
 Charge    0.56295     -0.42594     -0.41627     -0.46149      0.37344
   
 Atom       N141         C142         C143         C144         H145    
 Charge   -0.65550      0.67122     -0.50797      0.24197      0.20862
   
 Atom       H146         H147         H148    
 Charge    0.08135      0.22444      0.08797
  
  sum of atomic charges:     0.000000
   
 RMS Error   1.03E-03 hartrees
 
  Peak memory usage:    816 Mb
  
  end of program ch
   
 Time(ch)  user:       16.7  user+sys:       16.7  wallclock:       20.0
  
  start of program post
  
  Writing input files for PBF
  Peak memory usage:    759 Mb
  
  end of program post
   
 Time(post)  user:        0.7  user+sys:        0.7  wallclock:        0.9

  start of program pbf

Pbf Version 4.10

Molecular surface area:      837.08230   [A2]
Reaction field energy:       -20.96962   [kT]
  Peak memory usage: 722 Mb

  end of program pbf

 Time(pbf)  user:       10.4  user+sys:       10.5  wallclock:       10.6
  
  start of program solv
  
   number of surface charges from PBF   13912
   sum of surface charges     -0.00037
   
  nuclear repulsion energy.......   20853.813157397 hartrees
  Peak memory usage:    894 Mb
  
  end of program solv
   
 Time(solv)  user:       33.5  user+sys:       33.5  wallclock:       33.7
  
  start of program scf
  
 Energy computed with NOPS off.
  
       i  u  d  i  g                   
       t  p  i  c  r                                 RMS    maximum
       e  d  i  u  i                       energy  density   DIIS  
       r  t  s  t  d       total energy    change  change    error 
  
etot    1  N  N  1  U   -5575.58381608175           9.0E-06  2.3E-04
etot    2  N  Y  1  U   -5575.58375803414 -5.8E-05  5.8E-06  3.8E-04
etot    3  N  Y  1  U   -5575.58384119715  8.3E-05  2.3E-07  2.2E-05
etot    4  N  N  1  U   -5575.58384134106  1.4E-07  0.0E+00  0.0E+00
  
  
 Energy components, in hartrees:
   (A)  Total zero-electron terms....   20856.75017309978
   (B)    Nuclear-nuclear............   20853.81315739664
   (C)    Nuclear-solvent............       2.93701570314
   (E)  Total one-electron terms.....  -49240.84997548355
   (F)    Electron-nuclear...........  -54773.91294557705
   (G)    Electron-solvent...........      -2.98034230106
   (H)    Kinetic....................    5536.04331239456
   (I)  Total two-electron terms.....   22808.51596104271
   (J)    Coulomb....................   23459.77645699215
   (K)    Exchange+Correlation.......    -651.26049594944
   (L)  Electronic energy............  -26432.33401444084  (E+I)
   (N)  Total quantum mech. energy...   -5575.58384134106  (A+L)
   (O)  Gas phase energy.............   -5575.54197520377
   (P)  Solution phase energy........   -5575.56217804210  (Q+R+S)
   (Q)    Total solute energy........   -5575.54051474314  (N-C-G)
   (R)    Total solvent energy.......      -0.02166329896  (C/2+G/2)
   (S)    Solute cavity energy.......       0.00000000000
   (U)  Reorganization energy........       0.00146046063  (Q-O)
   (V)  Solvation energy.............      -0.02020283833  (P-O)
  
 SCFE:  Solution phase energy: DFT(m06-2x)      -5575.56217804210 hartrees
        SCF iterations:   4
  
 
 HOMO energy:    -0.25418
 LUMO energy:    -0.07162
 
  Orbital energies (hartrees): 
   -90.17314   -90.15415   -78.20556   -67.01105   -67.00363   -25.29385
   -25.29170   -25.29119   -19.68791   -19.68553   -19.65092   -19.64922
   -19.63237   -19.62555   -19.59802   -14.82264   -14.81033   -14.78640
   -14.74130   -10.80766   -10.66439   -10.62715   -10.62451   -10.62165
   -10.61975   -10.60384   -10.60128   -10.58248   -10.58200   -10.58070
   -10.58018   -10.57514   -10.57105   -10.57099   -10.57058   -10.57005
   -10.56989   -10.56801   -10.56655   -10.56613   -10.56489   -10.56379
   -10.56239   -10.56107   -10.56018   -10.55625   -10.55534   -10.55395
   -10.55323   -10.55268   -10.55256   -10.55253   -10.55235   -10.55213
   -10.55190   -10.55165   -10.55123   -10.55106   -10.55018   -10.54998
   -10.54972   -10.54874   -10.54866   -10.54798   -10.54794   -10.54669
   -10.54585   -10.54566   -10.54500   -10.54494   -10.54477   -10.54328
   -10.54294   -10.54263   -10.54214   -10.54197   -10.54154   -10.54124
   -10.54101   -10.54068   -10.54048   -10.54041   -10.53828   -10.53774
   -10.53665   -10.53613   -10.53347   -10.53209   -10.53087   -10.52896
   -10.52543   -10.52174    -8.48309    -8.46267    -6.98525    -6.40549
    -6.40416    -6.40346    -6.38449    -6.38422    -6.38404    -5.54215
    -5.53502    -5.10380    -5.10267    -5.10096    -3.85199    -3.85157
    -3.85146    -3.84477    -3.84454    -3.84427    -1.45858    -1.36837
    -1.36632    -1.24305    -1.22881    -1.21709    -1.18444    -1.13046
    -1.11368    -1.10377    -1.08254    -1.07911    -1.05920    -0.98890
    -0.98043    -0.97385    -0.96677    -0.94749    -0.94408    -0.94267
    -0.93637    -0.93614    -0.92997    -0.92137    -0.91835    -0.91072
    -0.90168    -0.89476    -0.88997    -0.87597    -0.85541    -0.85364
    -0.84513    -0.84420    -0.84307    -0.83801    -0.83583    -0.83539
    -0.83410    -0.83074    -0.83006    -0.82785    -0.82664    -0.82646
    -0.82571    -0.82320    -0.82276    -0.81980    -0.81805    -0.80643
    -0.80038    -0.75930    -0.75217    -0.73242    -0.72998    -0.71163
    -0.70854    -0.70421    -0.70278    -0.69860    -0.69051    -0.68793
    -0.68475    -0.68316    -0.68096    -0.67804    -0.67543    -0.67473
    -0.67379    -0.67304    -0.67223    -0.66873    -0.66815    -0.66748
    -0.66440    -0.66217    -0.65992    -0.65857    -0.65351    -0.65237
    -0.64929    -0.64036    -0.63617    -0.62506    -0.60981    -0.60906
    -0.60205    -0.60042    -0.59869    -0.58488    -0.58245    -0.58195
    -0.58029    -0.57847    -0.57568    -0.57392    -0.57139    -0.57086
    -0.56428    -0.56104    -0.55969    -0.55918    -0.55309    -0.54981
    -0.54599    -0.54161    -0.53933    -0.53770    -0.53682    -0.53365
    -0.52886    -0.52774    -0.52484    -0.52405    -0.52250    -0.51913
    -0.51837    -0.51716    -0.51465    -0.51422    -0.51315    -0.51007
    -0.50897    -0.50649    -0.50317    -0.50293    -0.50202    -0.50146
    -0.49962    -0.49779    -0.49624    -0.49547    -0.49478    -0.49423
    -0.49412    -0.49241    -0.49078    -0.48946    -0.48711    -0.48430
    -0.48388    -0.48323    -0.48131    -0.48048    -0.47855    -0.47559
    -0.47549    -0.47456    -0.47081    -0.46976    -0.46740    -0.46398
    -0.45564    -0.45344    -0.45204    -0.44986    -0.44793    -0.44756
    -0.44621    -0.44329    -0.43528    -0.43355    -0.43103    -0.42753
    -0.42656    -0.42584    -0.42415    -0.42335    -0.42156    -0.41945
    -0.41823    -0.41615    -0.41319    -0.41155    -0.40694    -0.40194
    -0.40024    -0.39704    -0.39563    -0.39479    -0.39351    -0.39339
    -0.39117    -0.38986    -0.38571    -0.38565    -0.38404    -0.38253
    -0.38085    -0.37877    -0.37788    -0.37696    -0.37489    -0.36316
    -0.35952    -0.35659    -0.35505    -0.35118    -0.34587    -0.34331
    -0.34305    -0.34234    -0.33911    -0.33792    -0.33523    -0.33423
    -0.32799    -0.32552    -0.32313    -0.31617    -0.31570    -0.30379
    -0.30296    -0.30265    -0.30135    -0.30034    -0.29811    -0.29464
    -0.29266    -0.29246    -0.28782    -0.28698    -0.28622    -0.28468
    -0.28350    -0.28025    -0.27281    -0.25418    -0.07162    -0.01846
    -0.01593    -0.00206     0.00657     0.01104     0.01298     0.01509
     0.01789     0.02019
 
  Peak memory usage:   1029 Mb
  
  end of program scf
   
 Time(scf)  user:     6868.7  user+sys:     6868.7  wallclock:     6954.0
  
  start of program sole
  
    SCRF                   solvation energy
  iteration          Hartrees            kcal/mol
     0               0.0000000            0.0000
     1              -0.0187396          -11.7593
     2              -0.0200319          -12.5702
     3              -0.0202887          -12.7314
     4              -0.0202028          -12.6775
  
  stopping: solvation energy converged
  
  iterations:   4    sfinal:    -12.6775 kcal/mol
  
  Peak memory usage:    813 Mb
  
  end of program sole
   
 Time(sole)  user:        0.1  user+sys:        0.1  wallclock:        0.1
  
  start of program post
  
  Writing input files for PBF
  Peak memory usage:    759 Mb
  
  end of program post
   
 Time(post)  user:        0.6  user+sys:        0.6  wallclock:        0.9

 Total cpu seconds     user:   48152.660   user+sys:   48152.660
  
 Total elapsed time:    48847 seconds

Job Type-I-Z-sulfonyl-bind-2-unrestrained-2-SPE completed on tethys at Tue Mar 14 04:52:48 2017
