Command:    jaguar run jexec.py -jobname Type-I-Z-sulfonyl-bind-2-unrestrained-2-SPE -nsubjobs 1 Type-I-Z-sulfonyl-bind-2-unrestrained-2-SPE.in
[running at reduced cpu priority]
Release:    2017-1
Exec:       /usr/local/shared/schrodinger/current/jaguar-v9.5/bin/Linux-x86_64
Host:       tethys
JobId:      tethys-0-58c6b84f
JobDir:     /scratch/ab2144/Type-I-Z-sulfonyl-bind-2-unrestrained-2-SPE
Date:       Mon Mar 13 15:18:41 2017

Contents of /scratch/ab2144/Type-I-Z-sulfonyl-bind-2-unrestrained-2-SPE:
/scratch/ab2144/Type-I-Z-sulfonyl-bind-2-unrestrained-2-SPE/tethys-0-58c6b84f.recover
/scratch/ab2144/Type-I-Z-sulfonyl-bind-2-unrestrained-2-SPE/Type-I-Z-sulfonyl-bind-2-unrestrained-2-SPE.in
/scratch/ab2144/Type-I-Z-sulfonyl-bind-2-unrestrained-2-SPE/tethys-0-58c6b84f
/scratch/ab2144/Type-I-Z-sulfonyl-bind-2-unrestrained-2-SPE/tethys-0-58c6b84f.nodes
/scratch/ab2144/Type-I-Z-sulfonyl-bind-2-unrestrained-2-SPE/Type-I-Z-sulfonyl-bind-2-unrestrained-2-SPE.mae
/scratch/ab2144/Type-I-Z-sulfonyl-bind-2-unrestrained-2-SPE/Type-I-Z-sulfonyl-bind-2-unrestrained-2-SPE.recover
/scratch/ab2144/Type-I-Z-sulfonyl-bind-2-unrestrained-2-SPE/Type-I-Z-sulfonyl-bind-2-unrestrained-2-SPE.log

Executing subprocess:
/usr/local/shared/schrodinger/current/jaguar-v9.5/bin/Linux-x86_64/jexec Type-I-Z-sulfonyl-bind-2-unrestrained-2-SPE.in -cwd -out /scratch/ab2144/Type-I-Z-sulfonyl-bind-2-unrestrained-2-SPE

[running at reduced cpu priority]
[running at reduced cpu priority]
Job Type-I-Z-sulfonyl-bind-2-unrestrained-2-SPE started on tethys at Mon Mar 13 15:18:41 2017
jobid: tethys-0-58c6b84f 
Jaguar version 9.5, release  11
Molecular Point Group: C1      
Point Group used: C1
pre (input checking) done.
onee (1-electron integrals) done.
hfig (HF initial guess) done.
probe (project orbitals) done.
grid (grid generation) done.
rwr (Q operators) done.
scf type: DFT=M06-2X
  
       i  u  d  i  g
       t  p  i  c  r                                 RMS    maximum
       e  d  i  u  i                       energy  density   DIIS  
       r  t  s  t  d       total energy    change  change    error 
  
etot    1  N  N  1  U   -5562.71238968672           3.8E-03  1.2E-01
etot    2  N  Y  1  U   -5532.44117551171 -3.0E+01  1.6E-02  1.3E-01
etot    3  N  Y  1  U   -5318.84039600100 -2.1E+02  1.5E-02  3.9E-01
etot    4  N  Y  1  U   -5568.87694297246  2.5E+02  2.4E-03  8.8E-02
etot    5  N  Y  1  U   -5573.51809081121  4.6E+00  1.5E-03  3.3E-02
etot    6  N  Y  1  U   -5572.85510293411 -6.6E-01  9.9E-04  4.9E-02
etot    7  N  Y  1  U   -5575.48461098114  2.6E+00  2.2E-04  7.5E-03
etot    8  N  Y  1  U   -5575.53157949629  4.7E-02  7.7E-05  4.0E-03
etot    9  N  Y  1  U   -5575.54069111088  9.1E-03  2.6E-05  1.3E-03
etot   10  N  Y  1  U   -5575.54179306038  1.1E-03  1.0E-05  3.6E-04
etot   11  N  Y  1  U   -5575.54194586803  1.5E-04  5.1E-06  1.5E-04
etot   12  N  N  1  U   -5575.54197520377  2.9E-05  0.0E+00  0.0E+00
scf (DFT) done.
--------gas phase calculation complete----------------------
ch (properties) done.
post (output conversion) done.
pbf (Poisson-Boltzmann solver) done.
solv (solvation checking) done.
  
       i  u  d  i  g
       t  p  i  c  r                                 RMS    maximum
       e  d  i  u  i                       energy  density   DIIS  
       r  t  s  t  d       total energy    change  change    error 
  
etot    1  N  N  1  U   -5575.57944352294           5.5E-05  1.1E-03
etot    2  N  Y  1  U   -5575.58027278542  8.3E-04  1.8E-05  1.1E-03
etot    3  N  Y  1  U   -5575.58057326183  3.0E-04  5.7E-06  4.3E-04
etot    4  N  Y  1  U   -5575.58062602709  5.3E-05  2.6E-06  9.0E-05
etot    5  N  N  1  U   -5575.58063387134  7.8E-06  0.0E+00  0.0E+00
scf (DFT) done.
sole (solvation energy) done.
----------solvation iteration  1 complete------------------
ch (properties) done.
post (output conversion) done.
pbf (Poisson-Boltzmann solver) done.
solv (solvation checking) done.
  
       i  u  d  i  g
       t  p  i  c  r                                 RMS    maximum
       e  d  i  u  i                       energy  density   DIIS  
       r  t  s  t  d       total energy    change  change    error 
  
etot    1  N  N  1  U   -5575.58357699572           6.6E-06  1.6E-04
etot    2  N  N  1  U   -5575.58357940088  2.4E-06  0.0E+00  0.0E+00
scf (DFT) done.
sole (solvation energy) done.
----------solvation iteration  2 complete------------------
ch (properties) done.
post (output conversion) done.
pbf (Poisson-Boltzmann solver) done.
solv (solvation checking) done.
  
       i  u  d  i  g
       t  p  i  c  r                                 RMS    maximum
       e  d  i  u  i                       energy  density   DIIS  
       r  t  s  t  d       total energy    change  change    error 
  
etot    1  N  N  1  U   -5575.58397285708           5.8E-06  1.4E-04
etot    2  N  N  1  U   -5575.58395604172 -1.7E-05  0.0E+00  0.0E+00
scf (DFT) done.
sole (solvation energy) done.
----------solvation iteration  3 complete------------------
ch (properties) done.
post (output conversion) done.
pbf (Poisson-Boltzmann solver) done.
solv (solvation checking) done.
  
       i  u  d  i  g
       t  p  i  c  r                                 RMS    maximum
       e  d  i  u  i                       energy  density   DIIS  
       r  t  s  t  d       total energy    change  change    error 
  
etot    1  N  N  1  U   -5575.58381608175           9.0E-06  2.3E-04
etot    2  N  Y  1  U   -5575.58375803414 -5.8E-05  5.8E-06  3.8E-04
etot    3  N  Y  1  U   -5575.58384119715  8.3E-05  2.3E-07  2.2E-05
etot    4  N  N  1  U   -5575.58384134106  1.4E-07  0.0E+00  0.0E+00
scf (DFT) done.
sole (solvation energy) done.
----final solvation iteration  4 complete------------------
post (output conversion) done.
Job Type-I-Z-sulfonyl-bind-2-unrestrained-2-SPE completed on tethys at Tue Mar 14 04:52:48 2017
Timer (jaguar_backend.py) : 48847.39 secs (13 hrs, 34 mins, 07 secs)
Finished:   Tue Mar 14 04:52:48 2017
