Job Toru-SiPh3-NTf-Type-I-E-3-chkp-unrestrained-IRC-max-disp-2.mol2-SPE started on tethys at Wed Mar 22 10:38:47 2017
jobid: tethys-0-58d25435

  +--------------------------------------------------------------------+
  |  Jaguar version 9.5, release  11                                   |
  |                                                                    |
  |  Copyright Schrodinger, Inc.                                       |
  |  All Rights Reserved.                                              |
  |                                                                    |
  |  The following have contributed to Jaguar (listed alphabetically): |
  |  Mike Beachy, Art Bochevarov, Dale Braden, Yixiang Cao,            |
  |  Chris Cortis, Rich Friesner, Bill Goddard, Hod Greeley,           |
  |  Tom Hughes, Leif Jacobson, Jean-Marc Langlois,                    |
  |  Daniel Mainz, Rob Murphy, Dean Philipp, Tom Pollard,              |
  |  Murco Ringnalda, Mark Watson, Haoyu Yu.                           |
  |                                                                    |
  |  Use of this program should be acknowledged in publications as:    |
  |                                                                    |
  |  Jaguar, version 9.5, Schrodinger, Inc., New York, NY, 2017.       |
  |                                                                    |
  |  A. D. Bochevarov, E. Harder, T. F. Hughes, J. R. Greenwood,       |
  |  D. A. Braden, D. M. Philipp, D. Rinaldo, M. D. Halls,             |
  |  J. Zhang, R. A. Friesner, "Jaguar: A High-Performance Quantum     |
  |  Chemistry Software Program with Strengths in Life and Materials   |
  |  Sciences", Int. J. Quantum Chem., 2013, 113(18), 2110-2142.       |
  +--------------------------------------------------------------------+
  
  start of program pre
  
  Job name: Toru-SiPh3-NTf-Type-I-E-3-chkp-unrestrained-IRC-max-disp-2.mol2-SPE
  Executables used: /usr/local/shared/schrodinger/current/jaguar-v9.5/bin/Linux-x86_64
  Temporary files : /scratch/ab2144/Toru-SiPh3-NTf-Type-I-E-3-chkp-unrestrained-IRC-max-disp-2.mol2-SPE
  Maestro file (input):  Toru-SiPh3-NTf-Type-I-E-3-chkp-unrestrained-IRC-max-disp-2.mol2-SPE.mae
  Maestro file (output): Toru-SiPh3-NTf-Type-I-E-3-chkp-unrestrained-IRC-max-disp-2.mol2-SPE.01.mae
  
  basis set:             6-31g**                         
  net molecular charge:    0
  multiplicity:            1
  
  keygrid settings 
    wispc.....   7.500E-01
    ldens.....   0
    denspc....   7.500E-01
  
   grid     daf set  nls  grid set  Q type
  ------    -------  ---  --------  ------
  coarse       1      1       1        1
  medium       2      2       2        1
  fine         3      2       3        0
  ultrafine    4      2       4        1
  charge       0      1      -1        1
  gradient     5      2       4        1
  density      0      1       0        0
  DFT-fine     0      1     -13        0
  DFT-med.     0      1     -13        0
  DFT-grad     0      1     -13        0
  DFT-der2     0      1       0        0
  DFT-cphf     0      1       0        0
  LMP2-enrg    4      2       4        1
  LMP2-grad    5      2       2        1
  DFT-cphf2    0      1       0        0
  PBF-dens     0      1       0        0
  plotting     0      1       0        0
  Rel-grad     0      1     -17        0
  
  idftgrdm  100
  ndftgrdm   50    0    0
  idftgrdf  111
  ndftgrdf   85    0    0
  idftgrdg  111
  ndftgrdg   80    3    0
  idftgrdu  433
  ndftgrdu  105    0    0
  idftgrdd  433
  ndftgrdd  105    0    0
  idftgrdc  433
  ndftgrdc   26    0    0
  idftgrdp  433
  ndftgrdp   18    0    0
  
  number of basis functions....         1680
  
 Input geometry:
                                   angstroms
  atom               x                 y                 z
  C1           -1.7592000000      5.1297000000      1.4572000000 
  C2           -2.4293000000      3.8309000000      1.1762000000 
  C3           -2.3621000000      6.0499000000      2.2189000000 
  C4           -3.6360000000      3.5805000000      1.7298000000 
  C5           -1.7733000000      2.7807000000      0.3432000000 
  C6           -4.2980000000      4.6087000000      2.5659000000 
  C7           -4.3106000000      2.2925000000      1.4772000000 
  C8           -3.6937000000      5.7798000000      2.7945000000 
  C9           -2.3123000000      1.5489000000      0.2779000000 
  C10          -0.5485000000      3.0781000000     -0.4346000000 
  C11          -3.7069000000      1.3342000000      0.7568000000 
  O12          -1.6306000000      0.5369000000     -0.3520000000 
  Si13         -4.6718000000     -0.1810000000      0.2487000000 
  C14          -0.5420000000      4.0195000000     -1.4063000000 
  C15           0.7186000000      2.3803000000     -0.0707000000 
  C16           0.7476000000      4.4592000000     -1.9884000000 
  C17          -1.7792000000      4.6601000000     -1.9225000000 
  C18           1.8977000000      3.9564000000     -1.5273000000 
  C19           0.7361000000      5.4956000000     -3.0399000000 
  C20           1.8969000000      2.9043000000     -0.4837000000 
  Si21          3.5564000000      2.3355000000      0.1669000000 
  O22           0.6919000000      1.3148000000      0.8014000000 
  C23          -1.7134000000      5.5955000000     -2.8773000000 
  C24          -0.4205000000      6.0261000000     -3.4513000000 
  P25          -0.2845000000      0.0354000000      0.4410000000 
  O26          -0.5618000000     -0.6571000000      1.7346000000 
  N27           0.4509000000     -0.9653000000     -0.6257000000 
  C28          -6.4741000000      0.0176000000      0.6735000000 
  C29          -4.6918000000     -0.3796000000     -1.5992000000 
  C30          -3.9625000000     -1.6580000000      1.1249000000 
  C31           3.9884000000      0.7255000000     -0.6546000000 
  C32           4.8496000000      3.6027000000     -0.2608000000 
  C33           3.6246000000      2.2789000000      2.0259000000 
  C34          -7.1262000000     -0.8723000000      1.4417000000 
  C35          -7.2194000000      1.1614000000      0.0934000000 
  C36          -4.2484000000      0.5947000000     -2.4118000000 
  C37          -5.3358000000     -1.5791000000     -2.1873000000 
  C38          -3.9857000000     -1.7027000000      2.4676000000 
  C39          -3.4628000000     -2.8300000000      0.3664000000 
  C40           4.2672000000     -0.3777000000      0.0558000000 
  C41           4.0855000000      0.6820000000     -2.1336000000 
  C42           4.6924000000      4.8733000000      0.1481000000 
  C43           6.0752000000      3.2248000000     -1.0072000000 
  C44           2.6250000000      2.7642000000      2.7830000000 
  C45           4.8794000000      1.8337000000      2.6800000000 
  C46          -8.5639000000     -0.6906000000      1.7324000000 
  C47          -9.2267000000      0.3521000000      1.2185000000 
  C48          -8.5221000000      1.3214000000      0.3558000000 
  C49          -4.3570000000      0.4464000000     -3.8785000000 
  C50          -4.9085000000     -0.6537000000     -4.4033000000 
  C51          -5.4276000000     -1.7131000000     -3.5159000000 
  C52          -3.6153000000     -2.9445000000      3.1760000000 
  C53          -3.2400000000     -4.0245000000      2.4815000000 
  C54          -3.1284000000     -3.9543000000      1.0108000000 
  C55           4.6577000000     -1.6273000000     -0.6304000000 
  C56           4.7563000000     -1.6568000000     -1.9641000000 
  C57           4.4593000000     -0.4444000000     -2.7526000000 
  C58           5.7131000000      5.8916000000     -0.1741000000 
  C59           6.8079000000      5.5487000000     -0.8625000000 
  C60           6.9998000000      4.1496000000     -1.2944000000 
  C61           2.7566000000      2.8022000000      4.2546000000 
  C62           3.8860000000      2.3852000000      4.8387000000 
  C63           5.0019000000      1.8841000000      4.0120000000 
  C64           4.6409000000     -2.8748000000      3.7527000000 
  C65           3.9453000000     -3.5786000000      2.7817000000 
  C66           2.8202000000     -3.0006000000      2.1500000000 
  C67           2.3706000000     -1.7293000000      2.5576000000 
  C68           3.0513000000     -1.0540000000      3.5640000000 
  C69           4.1910000000     -1.6092000000      4.1468000000 
  C70           2.1860000000     -3.7938000000      1.1298000000 
  N71           1.4121000000     -3.3956000000      0.1493000000 
  S72           0.7890000000     -4.6285000000     -0.9598000000 
  O73           0.7510000000     -5.8614000000     -0.1759000000 
  O74          -0.4010000000     -4.0500000000     -1.5627000000 
  C75           2.1164000000     -4.7622000000     -2.1851000000 
  C76           1.8570000000     -4.4544000000     -3.5147000000 
  C77           2.9114000000     -4.6542000000     -4.4068000000 
  C78           4.1291000000     -5.1278000000     -3.9231000000 
  C79           4.2632000000     -5.3819000000     -2.5555000000 
  N80           3.2625000000     -5.2048000000     -1.6866000000 
  N81          -0.3291000000     -3.1008000000      3.2693000000 
  C82           0.0536000000     -2.8112000000      4.5501000000 
  C83           0.5499000000     -3.9676000000      5.1292000000 
  C84           0.4682000000     -4.9898000000      4.1504000000 
  C85          -0.0674000000     -4.4222000000      3.0038000000 
  H86          -0.7748000000      5.3409000000      1.0606000000 
  H87          -1.8710000000      6.9929000000      2.4217000000 
  H88          -5.2733000000      4.4157000000      2.9953000000 
  H89          -5.3124000000      2.1522000000      1.8594000000 
  H90          -4.1771000000      6.5302000000      3.4066000000 
  H91          -2.7534000000      4.3660000000     -1.5533000000 
  H92           2.8346000000      4.2980000000     -1.9486000000 
  H93           1.6649000000      5.8369000000     -3.4815000000 
  H94          -2.6264000000      6.0452000000     -3.2461000000 
  H95          -0.4146000000      6.7864000000     -4.2218000000 
  H96          -6.6259000000     -1.7396000000      1.8471000000 
  H97          -6.7109000000      1.8745000000     -0.5438000000 
  H98          -3.8295000000      1.5093000000     -2.0163000000 
  H99          -5.7392000000     -2.3510000000     -1.5439000000 
  H100         -4.3471000000     -0.8596000000      3.0438000000 
  H101         -3.3715000000     -2.7928000000     -0.7086000000 
  H102          4.2377000000     -0.3643000000      1.1322000000 
  H103          3.8654000000      1.5662000000     -2.7188000000 
  H104          3.8148000000      5.1701000000      0.7096000000 
  H105          6.2431000000      2.2015000000     -1.3119000000 
  H106          1.7291000000      3.1717000000      2.3381000000 
  H107          5.7077000000      1.4757000000      2.0814000000 
  H108         -9.0799000000     -1.4058000000      2.3598000000 
  H109        -10.2799000000      0.4848000000      1.4295000000 
  H110         -9.0625000000      2.1589000000     -0.0659000000 
  H111         -3.9862000000      1.2299000000     -4.5265000000 
  H112         -4.9856000000     -0.7642000000     -5.4771000000 
  H113         -5.8938000000     -2.5918000000     -3.9424000000 
  H114         -3.6739000000     -2.9865000000      4.2558000000 
  H115         -2.9876000000     -4.9416000000      2.9977000000 
  H116         -2.7710000000     -4.8127000000      0.4568000000 
  H117          4.8766000000     -2.5147000000     -0.0510000000 
  H118          5.0524000000     -2.5665000000     -2.4682000000 
  H119          4.5338000000     -0.4728000000     -3.8319000000 
  H120          5.5722000000      6.9152000000      0.1481000000 
  H121          7.5570000000      6.2932000000     -1.0989000000 
  H122          7.8949000000      3.8726000000     -1.8362000000 
  H123          1.9398000000      3.1771000000      4.8577000000 
  H124          3.9850000000      2.4162000000      5.9160000000 
  H125          5.9185000000      1.5578000000      4.4859000000 
  H126          5.5190000000     -3.3122000000      4.2164000000 
  H127          4.2736000000     -4.5704000000      2.4846000000 
  H128          1.4786000000     -1.2913000000      2.1278000000 
  H129          2.6784000000     -0.0911000000      3.8909000000 
  H130          4.7219000000     -1.0657000000      4.9227000000 
  H131          2.4270000000     -4.8543000000      1.1195000000 
  H132          0.9029000000     -4.0456000000     -3.8191000000 
  H133          2.7825000000     -4.4287000000     -5.4603000000 
  H134          4.9707000000     -5.2889000000     -4.5884000000 
  H135          5.2039000000     -5.7354000000     -2.1418000000 
  H136         -0.6466000000     -2.3908000000      2.6092000000 
  H137         -0.0605000000     -1.8131000000      4.9453000000 
  H138          0.9208000000     -4.0610000000      6.1401000000 
  H139          0.7513000000     -6.0269000000      4.2653000000 
  H140         -0.3397000000     -4.8794000000      2.0652000000 
  S141          0.7465000000     -0.6668000000     -2.1793000000 
  O142          1.6465000000     -1.7291000000     -2.6514000000 
  C143         -0.8744000000     -0.9845000000     -3.1050000000 
  O144          1.0468000000      0.7352000000     -2.4946000000 
  F145         -1.7504000000     -1.6599000000     -2.3672000000 
  F146         -1.4072000000      0.1829000000     -3.4675000000 
  F147         -0.6055000000     -1.6934000000     -4.2145000000 
  H148          1.0761000000     -2.3832000000     -0.0806000000 
   
  principal moments of inertia:
        amu*angstrom^2:    20869.97387    25275.11634    31133.13928
                g*cm^2: 3.46554026E-36 4.19703129E-36 5.16977876E-36
   
  rotational constants:
               cm^(-1):      0.00080775      0.00066697      0.00054147
                   GHz:      0.02421560      0.01999512      0.01623283
   
  Molecular weight:    1308.28 amu
   
  Stoichiometry: Si2C73PN4H56S2O7F3
[running at reduced cpu priority]
  Molecular Point Group: C1      
  Point Group used: C1
  
  nuclear repulsion energy.......   20873.447215236 hartrees
 
 Non-default options chosen:
   SCF calculation type: DFT(m06-2x)                 
   DFT=M06-2X
   Solvation energy will be computed using PBF
     -solute cavity energy will not be included
     -surface area terms will not be included
   Highest accuracy cutoffs used in SCF
   Solvent: other                                                           
   Internal dielectric constant:    1.000
   Continuum dielectric constant:   2.380
   Solvent probe molecule radius:   2.760
  
 Temporary integer options set:
     73=  2
  
  atom       vdw   vdw2    cov     mass  grid  daf  charge   basis
  C1        1.949  1.900  0.770   12.000    Y    Y      Y    6-31g**
  C2        1.949  1.900  0.770   12.000    Y    Y      Y    6-31g**
  C3        1.949  1.900  0.770   12.000    Y    Y      Y    6-31g**
  C4        1.949  1.900  0.770   12.000    Y    Y      Y    6-31g**
  C5        1.949  1.900  0.770   12.000    Y    Y      Y    6-31g**
  C6        1.949  1.900  0.770   12.000    Y    Y      Y    6-31g**
  C7        1.949  1.900  0.770   12.000    Y    Y      Y    6-31g**
  C8        1.949  1.900  0.770   12.000    Y    Y      Y    6-31g**
  C9        1.949  1.900  0.770   12.000    Y    Y      Y    6-31g**
  C10       1.949  1.900  0.770   12.000    Y    Y      Y    6-31g**
  C11       1.949  1.900  0.770   12.000    Y    Y      Y    6-31g**
  O12       1.702  1.600  0.730   15.995    Y    Y      Y    6-31g**
  Si13      2.217  2.147  1.110   27.977    Y    Y      Y    6-31g**
  C14       1.949  1.900  0.770   12.000    Y    Y      Y    6-31g**
  C15       1.949  1.900  0.770   12.000    Y    Y      Y    6-31g**
  C16       1.949  1.900  0.770   12.000    Y    Y      Y    6-31g**
  C17       1.949  1.900  0.770   12.000    Y    Y      Y    6-31g**
  C18       1.949  1.900  0.770   12.000    Y    Y      Y    6-31g**
  C19       1.949  1.900  0.770   12.000    Y    Y      Y    6-31g**
  C20       1.949  1.900  0.770   12.000    Y    Y      Y    6-31g**
  Si21      2.217  2.147  1.110   27.977    Y    Y      Y    6-31g**
  O22       1.702  1.600  0.730   15.995    Y    Y      Y    6-31g**
  C23       1.949  1.900  0.770   12.000    Y    Y      Y    6-31g**
  C24       1.949  1.900  0.770   12.000    Y    Y      Y    6-31g**
  P25       2.147  2.074  1.060   30.974    Y    Y      Y    6-31g**
  O26       1.702  1.600  0.730   15.995    Y    Y      Y    6-31g**
  N27       1.831  1.600  0.750   14.003    Y    Y      Y    6-31g**
  C28       1.949  1.900  0.770   12.000    Y    Y      Y    6-31g**
  C29       1.949  1.900  0.770   12.000    Y    Y      Y    6-31g**
  C30       1.949  1.900  0.770   12.000    Y    Y      Y    6-31g**
  C31       1.949  1.900  0.770   12.000    Y    Y      Y    6-31g**
  C32       1.949  1.900  0.770   12.000    Y    Y      Y    6-31g**
  C33       1.949  1.900  0.770   12.000    Y    Y      Y    6-31g**
  C34       1.949  1.900  0.770   12.000    Y    Y      Y    6-31g**
  C35       1.949  1.900  0.770   12.000    Y    Y      Y    6-31g**
  C36       1.949  1.900  0.770   12.000    Y    Y      Y    6-31g**
  C37       1.949  1.900  0.770   12.000    Y    Y      Y    6-31g**
  C38       1.949  1.900  0.770   12.000    Y    Y      Y    6-31g**
  C39       1.949  1.900  0.770   12.000    Y    Y      Y    6-31g**
  C40       1.949  1.900  0.770   12.000    Y    Y      Y    6-31g**
  C41       1.949  1.900  0.770   12.000    Y    Y      Y    6-31g**
  C42       1.949  1.900  0.770   12.000    Y    Y      Y    6-31g**
  C43       1.949  1.900  0.770   12.000    Y    Y      Y    6-31g**
  C44       1.949  1.900  0.770   12.000    Y    Y      Y    6-31g**
  C45       1.949  1.900  0.770   12.000    Y    Y      Y    6-31g**
  C46       1.949  1.900  0.770   12.000    Y    Y      Y    6-31g**
  C47       1.949  1.900  0.770   12.000    Y    Y      Y    6-31g**
  C48       1.949  1.900  0.770   12.000    Y    Y      Y    6-31g**
  C49       1.949  1.900  0.770   12.000    Y    Y      Y    6-31g**
  C50       1.949  1.900  0.770   12.000    Y    Y      Y    6-31g**
  C51       1.949  1.900  0.770   12.000    Y    Y      Y    6-31g**
  C52       1.949  1.900  0.770   12.000    Y    Y      Y    6-31g**
  C53       1.949  1.900  0.770   12.000    Y    Y      Y    6-31g**
  C54       1.949  1.900  0.770   12.000    Y    Y      Y    6-31g**
  C55       1.949  1.900  0.770   12.000    Y    Y      Y    6-31g**
  C56       1.949  1.900  0.770   12.000    Y    Y      Y    6-31g**
  C57       1.949  1.900  0.770   12.000    Y    Y      Y    6-31g**
  C58       1.949  1.900  0.770   12.000    Y    Y      Y    6-31g**
  C59       1.949  1.900  0.770   12.000    Y    Y      Y    6-31g**
  C60       1.949  1.900  0.770   12.000    Y    Y      Y    6-31g**
  C61       1.949  1.900  0.770   12.000    Y    Y      Y    6-31g**
  C62       1.949  1.900  0.770   12.000    Y    Y      Y    6-31g**
  C63       1.949  1.900  0.770   12.000    Y    Y      Y    6-31g**
  C64       1.949  1.900  0.770   12.000    Y    Y      Y    6-31g**
  C65       1.949  1.900  0.770   12.000    Y    Y      Y    6-31g**
  C66       1.949  1.900  0.770   12.000    Y    Y      Y    6-31g**
  C67       1.949  1.900  0.770   12.000    Y    Y      Y    6-31g**
  C68       1.949  1.900  0.770   12.000    Y    Y      Y    6-31g**
  C69       1.949  1.900  0.770   12.000    Y    Y      Y    6-31g**
  C70       1.949  1.900  0.770   12.000    Y    Y      Y    6-31g**
  N71       1.831  1.600  0.750   14.003    Y    Y      Y    6-31g**
  S72       2.070  1.900  1.020   31.972    Y    Y      Y    6-31g**
  O73       1.702  1.600  0.730   15.995    Y    Y      Y    6-31g**
  O74       1.702  1.600  0.730   15.995    Y    Y      Y    6-31g**
  C75       1.949  1.900  0.770   12.000    Y    Y      Y    6-31g**
  C76       1.949  1.900  0.770   12.000    Y    Y      Y    6-31g**
  C77       1.949  1.900  0.770   12.000    Y    Y      Y    6-31g**
  C78       1.949  1.900  0.770   12.000    Y    Y      Y    6-31g**
  C79       1.949  1.900  0.770   12.000    Y    Y      Y    6-31g**
  N80       1.831  1.600  0.750   14.003    Y    Y      Y    6-31g**
  N81       1.831  1.600  0.750   14.003    Y    Y      Y    6-31g**
  C82       1.949  1.900  0.770   12.000    Y    Y      Y    6-31g**
  C83       1.949  1.900  0.770   12.000    Y    Y      Y    6-31g**
  C84       1.949  1.900  0.770   12.000    Y    Y      Y    6-31g**
  C85       1.949  1.900  0.770   12.000    Y    Y      Y    6-31g**
  H86       1.597  1.150  0.320    1.008    Y    Y      Y    6-31g**
  H87       1.597  1.150  0.320    1.008    Y    Y      Y    6-31g**
  H88       1.597  1.150  0.320    1.008    Y    Y      Y    6-31g**
  H89       1.597  1.150  0.320    1.008    Y    Y      Y    6-31g**
  H90       1.597  1.150  0.320    1.008    Y    Y      Y    6-31g**
  H91       1.597  1.150  0.320    1.008    Y    Y      Y    6-31g**
  H92       1.597  1.150  0.320    1.008    Y    Y      Y    6-31g**
  H93       1.597  1.150  0.320    1.008    Y    Y      Y    6-31g**
  H94       1.597  1.150  0.320    1.008    Y    Y      Y    6-31g**
  H95       1.597  1.150  0.320    1.008    Y    Y      Y    6-31g**
  H96       1.597  1.150  0.320    1.008    Y    Y      Y    6-31g**
  H97       1.597  1.150  0.320    1.008    Y    Y      Y    6-31g**
  H98       1.597  1.150  0.320    1.008    Y    Y      Y    6-31g**
  H99       1.597  1.150  0.320    1.008    Y    Y      Y    6-31g**
  H100      1.597  1.150  0.320    1.008    Y    Y      Y    6-31g**
  H101      1.597  1.150  0.320    1.008    Y    Y      Y    6-31g**
  H102      1.597  1.150  0.320    1.008    Y    Y      Y    6-31g**
  H103      1.597  1.150  0.320    1.008    Y    Y      Y    6-31g**
  H104      1.597  1.150  0.320    1.008    Y    Y      Y    6-31g**
  H105      1.597  1.150  0.320    1.008    Y    Y      Y    6-31g**
  H106      1.597  1.150  0.320    1.008    Y    Y      Y    6-31g**
  H107      1.597  1.150  0.320    1.008    Y    Y      Y    6-31g**
  H108      1.597  1.150  0.320    1.008    Y    Y      Y    6-31g**
  H109      1.597  1.150  0.320    1.008    Y    Y      Y    6-31g**
  H110      1.597  1.150  0.320    1.008    Y    Y      Y    6-31g**
  H111      1.597  1.150  0.320    1.008    Y    Y      Y    6-31g**
  H112      1.597  1.150  0.320    1.008    Y    Y      Y    6-31g**
  H113      1.597  1.150  0.320    1.008    Y    Y      Y    6-31g**
  H114      1.597  1.150  0.320    1.008    Y    Y      Y    6-31g**
  H115      1.597  1.150  0.320    1.008    Y    Y      Y    6-31g**
  H116      1.597  1.150  0.320    1.008    Y    Y      Y    6-31g**
  H117      1.597  1.150  0.320    1.008    Y    Y      Y    6-31g**
  H118      1.597  1.150  0.320    1.008    Y    Y      Y    6-31g**
  H119      1.597  1.150  0.320    1.008    Y    Y      Y    6-31g**
  H120      1.597  1.150  0.320    1.008    Y    Y      Y    6-31g**
  H121      1.597  1.150  0.320    1.008    Y    Y      Y    6-31g**
  H122      1.597  1.150  0.320    1.008    Y    Y      Y    6-31g**
  H123      1.597  1.150  0.320    1.008    Y    Y      Y    6-31g**
  H124      1.597  1.150  0.320    1.008    Y    Y      Y    6-31g**
  H125      1.597  1.150  0.320    1.008    Y    Y      Y    6-31g**
  H126      1.597  1.150  0.320    1.008    Y    Y      Y    6-31g**
  H127      1.597  1.150  0.320    1.008    Y    Y      Y    6-31g**
  H128      1.597  1.150  0.320    1.008    Y    Y      Y    6-31g**
  H129      1.597  1.150  0.320    1.008    Y    Y      Y    6-31g**
  H130      1.597  1.150  0.320    1.008    Y    Y      Y    6-31g**
  H131      1.597  1.150  0.320    1.008    Y    Y      Y    6-31g**
  H132      1.597  1.150  0.320    1.008    Y    Y      Y    6-31g**
  H133      1.597  1.150  0.320    1.008    Y    Y      Y    6-31g**
  H134      1.597  1.150  0.320    1.008    Y    Y      Y    6-31g**
  H135      1.597  1.150  0.320    1.008    Y    Y      Y    6-31g**
  H136      1.597  1.150  0.320    1.008    Y    Y      Y    6-31g**
  H137      1.597  1.150  0.320    1.008    Y    Y      Y    6-31g**
  H138      1.597  1.150  0.320    1.008    Y    Y      Y    6-31g**
  H139      1.597  1.150  0.320    1.008    Y    Y      Y    6-31g**
  H140      1.597  1.150  0.320    1.008    Y    Y      Y    6-31g**
  S141      2.070  1.900  1.020   31.972    Y    Y      Y    6-31g**
  O142      1.702  1.600  0.730   15.995    Y    Y      Y    6-31g**
  C143      1.949  1.900  0.770   12.000    Y    Y      Y    6-31g**
  O144      1.702  1.600  0.730   15.995    Y    Y      Y    6-31g**
  F145      1.736  1.682  0.720   18.998    Y    Y      Y    6-31g**
  F146      1.736  1.682  0.720   18.998    Y    Y      Y    6-31g**
  F147      1.736  1.682  0.720   18.998    Y    Y      Y    6-31g**
  H148      1.597  1.150  0.320    1.008    Y    Y      Y    6-31g**
  
  Peak memory usage:    768 Mb
  
  end of program pre
   
 Time(pre)  user:        0.8  user+sys:        0.8  wallclock:        1.3
  
  start of program onee
  
  smallest eigenvalue of S:    2.316E-04
  number of canonical orbitals.....         1674
  Peak memory usage:    900 Mb
  
  end of program onee
   
 Time(onee)  user:       16.5  user+sys:       16.5  wallclock:       19.4
  
  start of program hfig
  
  initial wavefunction generated automatically from atomic wavefunctions
 
  Irreducible     Total no   No of occupied orbitals 
  representation  orbitals   Shell_1  Shell_2    ...
  No Symm         1674        340
  ------------------------
  Orbital occupation/shell    1.000
 
  Peak memory usage:    833 Mb
  
  end of program hfig
   
 Time(hfig)  user:       28.0  user+sys:       28.0  wallclock:       29.3
  
  start of program probe
  
  Peak memory usage:    826 Mb
  
  end of program probe
   
 Time(probe)  user:       19.8  user+sys:       19.8  wallclock:       20.3
  
  start of program grid
  
   grid     grid set  grid #  grid sym
  ------    --------  ------  --------
  coarse        0        0        1
  medium        2        1        1
  fine          0        0        1
  ultrafine     4        2        1
  charge       -1        3        1
  gradient      4        2        1
  density       0        0        1
  DFT-fine    -13        4        1
  DFT-med.    -13        4        1
  DFT-grad    -13        4        1
  DFT-der2      0        0        1
  DFT-cphf      0        0        1
  LMP2-enrg     4        2        1
  LMP2-grad     2        1        1
  DFT-cphf2     0        0        1
  PBF-dens      0        0        1
  plotting      0        0        1
  Rel-grad    -17        0        1
  
  number of gridpoints: 
     atom        C1       C2       C3       C4       C5       C6       C7
  grid # 1       97      102       94      102      100       96       93
  grid # 2      337      360      336      366      355      335      336
  grid # 3       31       25       39       49       14       46       25
  grid # 4    48124    48124    48124    48124    48124    48124    48124
   
  number of gridpoints: 
     atom        C8       C9      C10      C11      O12     Si13      C14
  grid # 1       94       95      100       99      111      466      101
  grid # 2      335      350      355      361      433      466      360
  grid # 3       48       15       10       16       30        7       22
  grid # 4    48124    48124    48124    48124    47716    38542    48124
   
  number of gridpoints: 
     atom       C15      C16      C17      C18      C19      C20     Si21
  grid # 1       97      101       96       94       97      101      473
  grid # 2      355      366      338      332      338      360      473
  grid # 3        8       37       29       17       46       10        8
  grid # 4    48124    48124    48124    48124    48124    48124    38542
   
  number of gridpoints: 
     atom       O22      C23      C24      P25      O26      N27      C28
  grid # 1      113       95       94      450      117      102      100
  grid # 2      440      338      337      450      462      386      360
  grid # 3       46       37       47        6       86       17       12
  grid # 4    47716    48124    48124    38640    47716    47928    48124
   
  number of gridpoints: 
     atom       C29      C30      C31      C32      C33      C34      C35
  grid # 1       99      101       99      100       99       92       94
  grid # 2      358      358      358      356      359      337      334
  grid # 3       10        6        7       12       11       27       23
  grid # 4    48124    48124    48124    48124    48124    48124    48124
   
  number of gridpoints: 
     atom       C36      C37      C38      C39      C40      C41      C42
  grid # 1       92       94       95       96       92       93       92
  grid # 2      331      335      333      335      334      328      335
  grid # 3       13       22       10       21       18        7       21
  grid # 4    48124    48124    48124    48124    48124    48124    48124
   
  number of gridpoints: 
     atom       C43      C44      C45      C46      C47      C48      C49
  grid # 1       96       93       95       94       94       93       93
  grid # 2      340      333      335      335      336      335      331
  grid # 3       30       15       19       46       46       39       26
  grid # 4    48124    48124    48124    48124    48124    48124    48124
   
  number of gridpoints: 
     atom       C50      C51      C52      C53      C54      C55      C56
  grid # 1       93       93       93       94       93       94       93
  grid # 2      335      335      332      331      331      334      331
  grid # 3       36       35       15       24       27       27       24
  grid # 4    48124    48124    48124    48124    48124    48124    48124
   
  number of gridpoints: 
     atom       C57      C58      C59      C60      C61      C62      C63
  grid # 1       92       93       94       94       93       93       93
  grid # 2      330      335      336      336      332      331      330
  grid # 3       16       39       45       44       24       27       26
  grid # 4    48124    48124    48124    48124    48124    48124    48124
   
  number of gridpoints: 
     atom       C64      C65      C66      C67      C68      C69      C70
  grid # 1       95       95       94       95       95       95       94
  grid # 2      334      331      351      326      328      332      329
  grid # 3       28       17       13        7       12       21        7
  grid # 4    48124    48124    48124    48124    48124    48124    48124
   
  number of gridpoints: 
     atom       N71      S72      O73      O74      C75      C76      C77
  grid # 1       98      449      121      119       98       96       96
  grid # 2      355      449      488      477      358      325      331
  grid # 3       13       15      225      121       29       32       37
  grid # 4    47928    48492    47716    47716    48124    48124    48124
   
  number of gridpoints: 
     atom       C78      C79      N80      N81      C82      C83      C84
  grid # 1       96       96      112       96       93       94       94
  grid # 2      330      336      416      335      323      330      330
  grid # 3       30       29       81       14       16       29       22
  grid # 4    48124    48124    47928    47928    48124    48124    48124
   
  number of gridpoints: 
     atom       C85      H86      H87      H88      H89      H90      H91
  grid # 1       93      111      118      118      110      118      112
  grid # 2      318      434      452      446      425      453      429
  grid # 3        9      227      416      361      174      424      207
  grid # 4    48124    48426    48426    48426    48426    48426    48426
   
  number of gridpoints: 
     atom       H92      H93      H94      H95      H96      H97      H98
  grid # 1      109      118      118      118      111      113      110
  grid # 2      425      443      448      450      434      434      422
  grid # 3      169      362      401      417      217      249      145
  grid # 4    48426    48426    48426    48426    48426    48426    48426
   
  number of gridpoints: 
     atom       H99     H100     H101     H102     H103     H104     H105
  grid # 1      113      111      108      107      110      112      111
  grid # 2      432      439      418      415      429      437      432
  grid # 3      244      262      122       96      204      258      224
  grid # 4    48426    48426    48426    48426    48426    48426    48426
   
  number of gridpoints: 
     atom      H106     H107     H108     H109     H110     H111     H112
  grid # 1      109      112      118      118      118      116      117
  grid # 2      424      432      452      453      452      446      452
  grid # 3      172      238      420      424      420      345      410
  grid # 4    48426    48426    48426    48426    48426    48426    48426
   
  number of gridpoints: 
     atom      H113     H114     H115     H116     H117     H118     H119
  grid # 1      118      117      115      114      112      112      117
  grid # 2      452      447      443      439      433      436      450
  grid # 3      420      357      312      285      229      235      374
  grid # 4    48426    48426    48426    48426    48426    48426    48426
   
  number of gridpoints: 
     atom      H120     H121     H122     H123     H124     H125     H126
  grid # 1      118      118      118      117      117      117      118
  grid # 2      452      453      453      451      451      444      449
  grid # 3      414      424      423      389      394      346      411
  grid # 4    48426    48426    48426    48426    48426    48426    48426
   
  number of gridpoints: 
     atom      H127     H128     H129     H130     H131     H132     H133
  grid # 1      113      102      110      114      106      110      117
  grid # 2      440      405      424      437      416      433      452
  grid # 3      293       60      158      283      140      204      412
  grid # 4    48426    48426    48426    48426    48426    48426    48426
   
  number of gridpoints: 
     atom      H134     H135     H136     H137     H138     H139     H140
  grid # 1      117      117      103      116      117      117      109
  grid # 2      451      452      404      447      460      458      427
  grid # 3      405      408       89      339      449      425      125
  grid # 4    48426    48426    48426    48426    48426    48426    48426
   
  number of gridpoints: 
     atom      S141     O142     C143     O144     F145     F146     F147
  grid # 1      440      117       90      119      507      516      530
  grid # 2      440      470      319      478      507      516      530
  grid # 3       11       64        7      111       57      119      224
  grid # 4    48492    47716    48124    47716    47062    47062    47062
   
  number of gridpoints: 
     atom      H148    total
  grid # 1       99    18373
  grid # 2      394    57868
  grid # 3       61    19493
  grid # 4    48426  7104526
   
  Peak memory usage:    795 Mb
  
  end of program grid
   
 Time(grid)  user:     1116.7  user+sys:     1116.7  wallclock:     1134.7
  
  start of program rwr
  
  Peak memory usage:    814 Mb
  
  end of program rwr
   
 Time(rwr)  user:       64.1  user+sys:       64.1  wallclock:       69.4
  
  start of program scf
  
 number of electrons..........        680
 number of alpha electrons....        340
 number of beta electrons.....        340
 number of orbitals, total....       1674
 number of doubly-occ'd orbs..        340
 number of open shell orbs....          0
 number of occupied orbitals..        340
 number of virtual orbitals...       1334
 number of hamiltonians.......          1
 number of shells.............          1
 SCF type: DFT=M06-2X
 Energy computed with NOPS off.
  
       i  u  d  i  g                   
       t  p  i  c  r                                 RMS    maximum
       e  d  i  u  i                       energy  density   DIIS  
       r  t  s  t  d       total energy    change  change    error 
  
etot    1  N  N  1  U   -5562.76544578706           3.8E-03  1.3E-01
etot    2  N  Y  1  U   -5531.73413150131 -3.1E+01  1.5E-02  1.4E-01
etot    3  N  Y  1  U   -5269.03864851500 -2.6E+02  1.4E-02  4.3E-01
etot    4  N  Y  1  U   -5566.76380650889  3.0E+02  3.2E-03  8.9E-02
etot    5  N  Y  1  U   -5567.05280050075  2.9E-01  2.5E-03  6.4E-02
etot    6  N  Y  1  U   -5565.58606723434 -1.5E+00  1.6E-03  7.7E-02
etot    7  N  Y  1  U   -5575.37953646709  9.8E+00  3.9E-04  1.7E-02
etot    8  N  Y  1  U   -5575.53257043517  1.5E-01  1.5E-04  6.1E-03
etot    9  N  Y  1  U   -5575.55419198002  2.2E-02  6.2E-05  2.7E-03
etot   10  N  Y  1  U   -5575.56119216899  7.0E-03  1.8E-05  6.7E-04
etot   11  N  Y  1  U   -5575.56159350491  4.0E-04  8.0E-06  3.0E-04
etot   12  N  Y  1  U   -5575.56168485773  9.1E-05  4.0E-06  1.5E-04
etot   13  N  N  1  U   -5575.56171040526  2.6E-05  0.0E+00  0.0E+00
  
  
 Energy components, in hartrees:
   (A)  Nuclear repulsion............   20873.44721523609
   (E)  Total one-electron terms.....  -49275.18027885179
   (F)    Electron-nuclear...........  -54811.23512232047
   (H)    Kinetic....................    5536.05484346868
   (I)  Total two-electron terms.....   22826.17135321044
   (J)    Coulomb....................   23477.40372495036
   (K)    Exchange+Correlation.......    -651.23237173992
   (L)  Electronic energy............  -26449.00892564135  (E+I)
   (M)  -V/T.........................       2.00713628532  (-(A+F+I)/H)
   (N)  Total energy.................   -5575.56171040526  (A+L)
   (O)  Gas phase energy.............   -5575.56171040526
  
 SCFE: SCF energy: DFT(m06-2x)     -5575.56171040526 hartrees   iterations:  13
  
 
 HOMO energy:    -0.24425
 LUMO energy:    -0.07944
 
  Orbital energies (hartrees): 
   -90.19133   -90.14671   -78.20943   -67.00592   -67.00155   -25.28195
   -25.28048   -25.27742   -19.69428   -19.69233   -19.67498   -19.67385
   -19.62133   -19.62066   -19.60040   -14.85990   -14.80858   -14.77918
   -14.74969   -10.79742   -10.68245   -10.64913   -10.62396   -10.62178
   -10.62107   -10.60323   -10.60027   -10.59762   -10.59515   -10.58885
   -10.58110   -10.57848   -10.57519   -10.56756   -10.56705   -10.56478
   -10.56430   -10.56337   -10.55906   -10.55622   -10.55405   -10.55394
   -10.55274   -10.55185   -10.55168   -10.55153   -10.55123   -10.55103
   -10.55099   -10.55062   -10.55043   -10.54994   -10.54927   -10.54848
   -10.54795   -10.54786   -10.54763   -10.54733   -10.54563   -10.54552
   -10.54511   -10.54503   -10.54391   -10.54378   -10.54359   -10.54340
   -10.54294   -10.54274   -10.54190   -10.54152   -10.54062   -10.54008
   -10.53972   -10.53918   -10.53875   -10.53866   -10.53779   -10.53762
   -10.53650   -10.53607   -10.53528   -10.53497   -10.53423   -10.53376
   -10.53276   -10.52788   -10.52717   -10.52557   -10.52278   -10.52049
   -10.51805   -10.51474    -8.50263    -8.45573    -6.98921    -6.42505
    -6.42364    -6.42266    -6.37756    -6.37722    -6.37695    -5.53722
    -5.53309    -5.10747    -5.10681    -5.10495    -3.84695    -3.84682
    -3.84643    -3.84292    -3.84265    -3.84220    -1.44740    -1.35678
    -1.35500    -1.26764    -1.22728    -1.21229    -1.18580    -1.15720
    -1.10280    -1.10014    -1.09755    -1.08522    -1.06021    -0.98701
    -0.98498    -0.97644    -0.96283    -0.94668    -0.93984    -0.93946
    -0.93843    -0.93454    -0.93214    -0.92938    -0.91923    -0.91285
    -0.90652    -0.89375    -0.88571    -0.86607    -0.84974    -0.84578
    -0.84371    -0.83828    -0.83748    -0.83235    -0.83093    -0.82993
    -0.82766    -0.82668    -0.82504    -0.82474    -0.82217    -0.82212
    -0.82109    -0.81808    -0.81773    -0.81612    -0.81532    -0.79663
    -0.79248    -0.77862    -0.75471    -0.75343    -0.72909    -0.72289
    -0.71045    -0.70589    -0.70194    -0.70153    -0.69505    -0.68706
    -0.67954    -0.67679    -0.67501    -0.67371    -0.67219    -0.67214
    -0.67025    -0.66874    -0.66545    -0.66485    -0.66204    -0.66146
    -0.65869    -0.65617    -0.65509    -0.64967    -0.64638    -0.64545
    -0.64023    -0.63564    -0.62712    -0.62336    -0.62285    -0.60612
    -0.60313    -0.59893    -0.59695    -0.59561    -0.58639    -0.58473
    -0.58144    -0.57871    -0.57692    -0.57470    -0.57347    -0.57105
    -0.56816    -0.55814    -0.55746    -0.55639    -0.55417    -0.55165
    -0.54897    -0.54632    -0.54518    -0.53763    -0.53440    -0.53187
    -0.52425    -0.52367    -0.52085    -0.51876    -0.51727    -0.51506
    -0.51313    -0.51281    -0.51188    -0.51084    -0.50952    -0.50948
    -0.50656    -0.50522    -0.50344    -0.50281    -0.50255    -0.49826
    -0.49762    -0.49450    -0.49443    -0.49336    -0.49229    -0.49158
    -0.48978    -0.48966    -0.48803    -0.48542    -0.48438    -0.48383
    -0.48011    -0.47919    -0.47737    -0.47715    -0.47276    -0.47239
    -0.46909    -0.46699    -0.46687    -0.46364    -0.45826    -0.45811
    -0.45322    -0.44956    -0.44833    -0.44747    -0.44524    -0.44216
    -0.44003    -0.43968    -0.43554    -0.43320    -0.43216    -0.43004
    -0.42862    -0.42652    -0.42515    -0.42120    -0.42006    -0.41820
    -0.41773    -0.41736    -0.41479    -0.41339    -0.41062    -0.40982
    -0.40840    -0.40361    -0.39995    -0.39679    -0.39461    -0.39389
    -0.39023    -0.38835    -0.38637    -0.38448    -0.38360    -0.38193
    -0.37987    -0.37785    -0.37685    -0.37325    -0.37120    -0.37063
    -0.36455    -0.36415    -0.35462    -0.35218    -0.34851    -0.34590
    -0.34113    -0.33922    -0.33808    -0.33752    -0.33447    -0.33314
    -0.33067    -0.32926    -0.32502    -0.32293    -0.30675    -0.30186
    -0.29911    -0.29795    -0.29542    -0.29285    -0.29113    -0.28966
    -0.28857    -0.28689    -0.28580    -0.28176    -0.28002    -0.27666
    -0.27272    -0.26940    -0.24741    -0.24425    -0.07944    -0.03454
    -0.01419    -0.01356     0.00343     0.01079     0.01295     0.01800
     0.02336     0.02561
 
  Peak memory usage:   1028 Mb
  
  end of program scf
   
 Time(scf)  user:    29628.2  user+sys:    29628.2  wallclock:    30067.3
  
  start of program ch
  
  gridpoints used for charge fit        16858
    out of a possible maximum of        19493
  
   Electrostatic potential fitting constrained to reproduce
     total charge:                yes
     dipole moment:               no 
     traceless quadrupole moment: no 
     traceless octapole moment:   no 
  
  Atomic charges from electrostatic potential: 
   
 Atom       C1           C2           C3           C4           C5      
 Charge   -0.04816     -0.07946     -0.20666      0.19208      0.11377
   
 Atom       C6           C7           C8           C9           C10     
 Charge   -0.23794     -0.26750     -0.08256      0.14012     -0.42236
   
 Atom       C11          O12          Si13         C14          C15     
 Charge   -0.00442     -0.25979     -0.25266      0.16261      0.54045
   
 Atom       C16          C17          C18          C19          C20     
 Charge    0.23072     -0.13236     -0.33494     -0.28019     -0.06125
   
 Atom       Si21         O22          C23          C24          P25     
 Charge   -0.28280     -0.39318     -0.18752     -0.07964      0.88854
   
 Atom       O26          N27          C28          C29          C30     
 Charge   -0.60532     -0.58953      0.19796      0.20115      0.31674
   
 Atom       C31          C32          C33          C34          C35     
 Charge    0.43177      0.24028      0.07557     -0.16844     -0.23757
   
 Atom       C36          C37          C38          C39          C40     
 Charge   -0.14805     -0.20816     -0.19159     -0.27490     -0.31475
   
 Atom       C41          C42          C43          C44          C45     
 Charge   -0.23340     -0.17965     -0.23126     -0.04925     -0.19434
   
 Atom       C46          C47          C48          C49          C50     
 Charge   -0.13512     -0.16052     -0.08320     -0.17210     -0.09666
   
 Atom       C51          C52          C53          C54          C55     
 Charge   -0.15193     -0.15551     -0.11058     -0.14013     -0.17861
   
 Atom       C56          C57          C58          C59          C60     
 Charge   -0.05259     -0.16028     -0.13869     -0.15904     -0.10197
   
 Atom       C61          C62          C63          C64          C65     
 Charge   -0.15920     -0.13987     -0.09791     -0.10636     -0.32500
   
 Atom       C66          C67          C68          C69          C70     
 Charge    0.40215     -0.10091     -0.03411     -0.15493     -0.15263
   
 Atom       N71          S72          O73          O74          C75     
 Charge   -0.06282      0.65147     -0.39850     -0.39249      0.47680
   
 Atom       C76          C77          C78          C79          N80     
 Charge   -0.31621      0.11691     -0.36850      0.32134     -0.54346
   
 Atom       N81          C82          C83          C84          C85     
 Charge    0.14760     -0.34903     -0.11749     -0.36358     -0.08256
   
 Atom       H86          H87          H88          H89          H90     
 Charge    0.09591      0.15063      0.14504      0.16260      0.12805
   
 Atom       H91          H92          H93          H94          H95     
 Charge    0.11831      0.17346      0.15783      0.14571      0.12456
   
 Atom       H96          H97          H98          H99          H100    
 Charge    0.11080      0.13807      0.14165      0.13630      0.12778
   
 Atom       H101         H102         H103         H104         H105    
 Charge    0.16195      0.15536      0.16754      0.13385      0.10683
   
 Atom       H106         H107         H108         H109         H110    
 Charge    0.09276      0.13481      0.13384      0.13431      0.12151
   
 Atom       H111         H112         H113         H114         H115    
 Charge    0.13536      0.11953      0.13805      0.12982      0.11174
   
 Atom       H116         H117         H118         H119         H120    
 Charge    0.13925      0.11769      0.09018      0.13683      0.13206
   
 Atom       H121         H122         H123         H124         H125    
 Charge    0.13563      0.13065      0.13404      0.13092      0.11752
   
 Atom       H126         H127         H128         H129         H130    
 Charge    0.15224      0.18767      0.15486      0.08553      0.14775
   
 Atom       H131         H132         H133         H134         H135    
 Charge    0.15512      0.17527      0.12587      0.18325      0.07131
   
 Atom       H136         H137         H138         H139         H140    
 Charge    0.20186      0.19556      0.14166      0.18627      0.12774
   
 Atom       S141         O142         C143         O144         F145    
 Charge    0.67049     -0.42439      0.47884     -0.44254     -0.11689
   
 Atom       F146         F147         H148    
 Charge   -0.15049     -0.15975      0.20814
  
  sum of atomic charges:     0.000000
   
 RMS Error   9.75E-04 hartrees
 
  Peak memory usage:    816 Mb
  
  end of program ch
   
 Time(ch)  user:       16.4  user+sys:       16.4  wallclock:       18.0
  
  start of program post
  
  Writing input files for PBF
  Peak memory usage:    759 Mb
  
  end of program post
   
 Time(post)  user:        0.6  user+sys:        0.6  wallclock:        0.8

  start of program pbf

Pbf Version 4.10

Molecular surface area:      840.77533   [A2]
Reaction field energy:       -16.77791   [kT]
  Peak memory usage: 722 Mb

  end of program pbf

 Time(pbf)  user:       15.2  user+sys:       15.3  wallclock:       15.4
  
  start of program solv
  
   number of surface charges from PBF   13570
   sum of surface charges     -0.00057
   
  nuclear repulsion energy.......   20873.447215236 hartrees
  Peak memory usage:    894 Mb
  
  end of program solv
   
 Time(solv)  user:       32.7  user+sys:       32.7  wallclock:       32.8
  
  start of program scf
  
 Energy computed with NOPS off.
  
       i  u  d  i  g                   
       t  p  i  c  r                                 RMS    maximum
       e  d  i  u  i                       energy  density   DIIS  
       r  t  s  t  d       total energy    change  change    error 
  
etot    1  N  N  1  U   -5575.59735394034           4.8E-05  8.0E-04
etot    2  N  Y  1  U   -5575.59810926316  7.6E-04  1.5E-05  6.1E-04
etot    3  N  Y  1  U   -5575.59829615197  1.9E-04  4.9E-06  2.8E-04
etot    4  N  N  1  U   -5575.59833663253  4.0E-05  0.0E+00  0.0E+00
  
  
 Energy components, in hartrees:
   (A)  Total zero-electron terms....   20876.22449470808
   (B)    Nuclear-nuclear............   20873.44721523609
   (C)    Nuclear-solvent............       2.77727947199
   (E)  Total one-electron terms.....  -49279.60558724355
   (F)    Electron-nuclear...........  -54812.89325994442
   (G)    Electron-solvent...........      -2.81486018156
   (H)    Kinetic....................    5536.10253288243
   (I)  Total two-electron terms.....   22827.78275590295
   (J)    Coulomb....................   23479.03373739429
   (K)    Exchange+Correlation.......    -651.25098149134
   (L)  Electronic energy............  -26451.82283134061  (E+I)
   (N)  Total quantum mech. energy...   -5575.59833663253  (A+L)
   (O)  Gas phase energy.............   -5575.56171040526
   (P)  Solution phase energy........   -5575.57954627774  (Q+R+S)
   (Q)    Total solute energy........   -5575.56075592295  (N-C-G)
   (R)    Total solvent energy.......      -0.01879035479  (C/2+G/2)
   (S)    Solute cavity energy.......       0.00000000000
   (U)  Reorganization energy........       0.00095448231  (Q-O)
   (V)  Solvation energy.............      -0.01783587248  (P-O)
  
 SCFE:  Solution phase energy: DFT(m06-2x)      -5575.57954627774 hartrees
        SCF iterations:   4
  
 
 HOMO energy:    -0.24630
 LUMO energy:    -0.07752
 
  Orbital energies (hartrees): 
   -90.19211   -90.14998   -78.21156   -67.00777   -67.00550   -25.28716
   -25.28514   -25.28304   -19.69688   -19.69461   -19.67713   -19.67639
   -19.62572   -19.62444   -19.60256   -14.85774   -14.80296   -14.78041
   -14.75208   -10.80219   -10.67986   -10.64470   -10.62442   -10.62403
   -10.61688   -10.59583   -10.59507   -10.59246   -10.58965   -10.58541
   -10.57851   -10.57599   -10.57160   -10.57128   -10.56779   -10.56714
   -10.56618   -10.56466   -10.56321   -10.56011   -10.55720   -10.55410
   -10.55405   -10.55393   -10.55282   -10.55278   -10.55264   -10.55230
   -10.55219   -10.55182   -10.55157   -10.55127   -10.55113   -10.55062
   -10.55044   -10.55040   -10.54975   -10.54953   -10.54852   -10.54815
   -10.54779   -10.54776   -10.54773   -10.54724   -10.54655   -10.54613
   -10.54542   -10.54486   -10.54447   -10.54416   -10.54390   -10.54373
   -10.54291   -10.54274   -10.54257   -10.54157   -10.54060   -10.54052
   -10.53979   -10.53934   -10.53836   -10.53767   -10.53733   -10.53628
   -10.53509   -10.53160   -10.53063   -10.52708   -10.52682   -10.52439
   -10.52025   -10.51729    -8.50340    -8.45906    -6.99137    -6.42580
    -6.42448    -6.42336    -6.38088    -6.38055    -6.38029    -5.53906
    -5.53703    -5.10963    -5.10897    -5.10711    -3.84879    -3.84866
    -3.84827    -3.84685    -3.84660    -3.84614    -1.45254    -1.36168
    -1.36044    -1.26931    -1.22995    -1.21596    -1.18827    -1.15945
    -1.10523    -1.09959    -1.09336    -1.08720    -1.06175    -0.98902
    -0.98354    -0.97940    -0.96616    -0.94679    -0.94273    -0.94223
    -0.93640    -0.93631    -0.93322    -0.93292    -0.92234    -0.90957
    -0.90849    -0.89066    -0.88895    -0.86325    -0.85285    -0.84800
    -0.84502    -0.84119    -0.83799    -0.83486    -0.83400    -0.83397
    -0.82935    -0.82929    -0.82887    -0.82627    -0.82609    -0.82440
    -0.82359    -0.82131    -0.82051    -0.81911    -0.81607    -0.79964
    -0.79405    -0.77567    -0.75720    -0.74752    -0.72847    -0.72342
    -0.70936    -0.70607    -0.70458    -0.70036    -0.69776    -0.68971
    -0.68086    -0.67993    -0.67779    -0.67729    -0.67564    -0.67469
    -0.67349    -0.67171    -0.66895    -0.66693    -0.66242    -0.66215
    -0.65904    -0.65869    -0.65772    -0.65337    -0.64917    -0.64733
    -0.64188    -0.63427    -0.62697    -0.62561    -0.62401    -0.60768
    -0.60441    -0.60176    -0.59946    -0.59195    -0.58337    -0.58174
    -0.58069    -0.58019    -0.57914    -0.57748    -0.57583    -0.57401
    -0.57150    -0.56099    -0.55911    -0.55702    -0.55651    -0.55229
    -0.55102    -0.54762    -0.54460    -0.53935    -0.53676    -0.53188
    -0.52631    -0.52482    -0.52298    -0.52120    -0.51858    -0.51675
    -0.51601    -0.51505    -0.51393    -0.51200    -0.51092    -0.50880
    -0.50830    -0.50491    -0.50343    -0.50105    -0.50079    -0.50047
    -0.49986    -0.49774    -0.49638    -0.49516    -0.49477    -0.49359
    -0.49277    -0.49109    -0.48972    -0.48858    -0.48638    -0.48364
    -0.48267    -0.48098    -0.48031    -0.47591    -0.47522    -0.47251
    -0.47149    -0.47016    -0.46675    -0.46613    -0.46051    -0.45929
    -0.45458    -0.45173    -0.44991    -0.44977    -0.44779    -0.44546
    -0.44306    -0.43911    -0.43487    -0.43456    -0.43426    -0.43117
    -0.42950    -0.42786    -0.42729    -0.42431    -0.42363    -0.42104
    -0.41995    -0.41905    -0.41563    -0.41478    -0.41390    -0.41193
    -0.41128    -0.40573    -0.40191    -0.39909    -0.39604    -0.39391
    -0.39308    -0.39024    -0.38971    -0.38689    -0.38552    -0.38515
    -0.38257    -0.38028    -0.37753    -0.37556    -0.37397    -0.36906
    -0.36683    -0.36073    -0.35610    -0.35350    -0.35098    -0.34547
    -0.34359    -0.34106    -0.34094    -0.33988    -0.33777    -0.33654
    -0.33235    -0.32855    -0.32627    -0.32315    -0.30809    -0.30371
    -0.30199    -0.30116    -0.30018    -0.29666    -0.29395    -0.29323
    -0.29112    -0.29059    -0.28787    -0.28539    -0.28442    -0.27969
    -0.27589    -0.27260    -0.25075    -0.24630    -0.07752    -0.02985
    -0.01687    -0.00810    -0.00001     0.01005     0.01293     0.01574
     0.02075     0.02117
 
  Peak memory usage:   1029 Mb
  
  end of program scf
   
 Time(scf)  user:     6731.8  user+sys:     6731.8  wallclock:     6826.4
  
  start of program sole
  
    SCRF                   solvation energy
  iteration          Hartrees            kcal/mol
     0               0.0000000            0.0000
     1              -0.0178359          -11.1922
  
  solvation energy not yet converged... 
  
  Peak memory usage:    813 Mb
  
  end of program sole
   
 Time(sole)  user:        0.1  user+sys:        0.1  wallclock:        0.1
  
  start of program ch
  
  gridpoints used for charge fit        16858
    out of a possible maximum of        16858
  
   Electrostatic potential fitting constrained to reproduce
     total charge:                yes
     dipole moment:               no 
     traceless quadrupole moment: no 
     traceless octapole moment:   no 
  
  Atomic charges from electrostatic potential: 
   
 Atom       C1           C2           C3           C4           C5      
 Charge   -0.04824     -0.07815     -0.21469      0.19550      0.11388
   
 Atom       C6           C7           C8           C9           C10     
 Charge   -0.24750     -0.27744     -0.08555      0.13395     -0.42389
   
 Atom       C11          O12          Si13         C14          C15     
 Charge    0.00659     -0.25617     -0.27286      0.16440      0.53708
   
 Atom       C16          C17          C18          C19          C20     
 Charge    0.22948     -0.13726     -0.34240     -0.28835     -0.04818
   
 Atom       Si21         O22          C23          C24          P25     
 Charge   -0.29967     -0.38526     -0.19207     -0.08623      0.87770
   
 Atom       O26          N27          C28          C29          C30     
 Charge   -0.60162     -0.57801      0.20484      0.20625      0.32386
   
 Atom       C31          C32          C33          C34          C35     
 Charge    0.44337      0.24200      0.07271     -0.17208     -0.24500
   
 Atom       C36          C37          C38          C39          C40     
 Charge   -0.15144     -0.21516     -0.19018     -0.27873     -0.32781
   
 Atom       C41          C42          C43          C44          C45     
 Charge   -0.22892     -0.17982     -0.23118     -0.04593     -0.19941
   
 Atom       C46          C47          C48          C49          C50     
 Charge   -0.14470     -0.16743     -0.08862     -0.17947     -0.10178
   
 Atom       C51          C52          C53          C54          C55     
 Charge   -0.15903     -0.16168     -0.11760     -0.14727     -0.18379
   
 Atom       C56          C57          C58          C59          C60     
 Charge   -0.05448     -0.17273     -0.14773     -0.16517     -0.11287
   
 Atom       C61          C62          C63          C64          C65     
 Charge   -0.16904     -0.14502     -0.10541     -0.11590     -0.32008
   
 Atom       C66          C67          C68          C69          C70     
 Charge    0.40076     -0.08770     -0.04646     -0.15137     -0.14714
   
 Atom       N71          S72          O73          O74          C75     
 Charge   -0.06447      0.66818     -0.41813     -0.40641      0.48184
   
 Atom       C76          C77          C78          C79          N80     
 Charge   -0.31946      0.11971     -0.36885      0.32838     -0.56601
   
 Atom       N81          C82          C83          C84          C85     
 Charge    0.15717     -0.36141     -0.12578     -0.38092     -0.08340
   
 Atom       H86          H87          H88          H89          H90     
 Charge    0.09766      0.15840      0.15172      0.16917      0.13573
   
 Atom       H91          H92          H93          H94          H95     
 Charge    0.12004      0.17820      0.16457      0.15265      0.13232
   
 Atom       H96          H97          H98          H99          H100    
 Charge    0.11152      0.14254      0.14399      0.13989      0.13144
   
 Atom       H101         H102         H103         H104         H105    
 Charge    0.16304      0.16135      0.16625      0.13698      0.10530
   
 Atom       H106         H107         H108         H109         H110    
 Charge    0.09148      0.13773      0.14226      0.14213      0.12889
   
 Atom       H111         H112         H113         H114         H115    
 Charge    0.14018      0.12645      0.14546      0.13514      0.11507
   
 Atom       H116         H117         H118         H119         H120    
 Charge    0.14317      0.11992      0.09478      0.14393      0.13965
   
 Atom       H121         H122         H123         H124         H125    
 Charge    0.14314      0.13891      0.14218      0.13913      0.12592
   
 Atom       H126         H127         H128         H129         H130    
 Charge    0.16225      0.19488      0.14417      0.09154      0.15464
   
 Atom       H131         H132         H133         H134         H135    
 Charge    0.15876      0.17569      0.13514      0.19263      0.07921
   
 Atom       H136         H137         H138         H139         H140    
 Charge    0.20025      0.20429      0.14750      0.19415      0.12866
   
 Atom       S141         O142         C143         O144         F145    
 Charge    0.66825     -0.42031      0.47854     -0.45708     -0.11208
   
 Atom       F146         F147         H148    
 Charge   -0.15150     -0.16167      0.20263
  
  sum of atomic charges:     0.000000
   
 RMS Error   9.82E-04 hartrees
 
  Peak memory usage:    816 Mb
  
  end of program ch
   
 Time(ch)  user:       17.3  user+sys:       17.3  wallclock:       19.4
  
  start of program post
  
  Writing input files for PBF
  Peak memory usage:    759 Mb
  
  end of program post
   
 Time(post)  user:        0.7  user+sys:        0.7  wallclock:        1.0

  start of program pbf

Pbf Version 4.10

Molecular surface area:      840.77533   [A2]
Reaction field energy:       -19.05948   [kT]
  Peak memory usage: 722 Mb

  end of program pbf

 Time(pbf)  user:       16.9  user+sys:       17.0  wallclock:       17.2
  
  start of program solv
  
   number of surface charges from PBF   13570
   sum of surface charges     -0.00059
   
  nuclear repulsion energy.......   20873.447215236 hartrees
  Peak memory usage:    894 Mb
  
  end of program solv
   
 Time(solv)  user:       32.6  user+sys:       32.6  wallclock:       32.8
  
  start of program scf
  
 Energy computed with NOPS off.
  
       i  u  d  i  g                   
       t  p  i  c  r                                 RMS    maximum
       e  d  i  u  i                       energy  density   DIIS  
       r  t  s  t  d       total energy    change  change    error 
  
etot    1  N  N  1  U   -5575.60078020083           5.8E-06  1.0E-04
etot    2  N  N  1  U   -5575.60078934554  9.1E-06  0.0E+00  0.0E+00
  
  
 Energy components, in hartrees:
   (A)  Total zero-electron terms....   20876.51264815084
   (B)    Nuclear-nuclear............   20873.44721523609
   (C)    Nuclear-solvent............       3.06543291475
   (E)  Total one-electron terms.....  -49280.02596026932
   (F)    Electron-nuclear...........  -54813.06855644149
   (G)    Electron-solvent...........      -3.10570940650
   (H)    Kinetic....................    5536.14830557867
   (I)  Total two-electron terms.....   22827.91252277294
   (J)    Coulomb....................   23479.17132257235
   (K)    Exchange+Correlation.......    -651.25879979941
   (L)  Electronic energy............  -26452.11343749638  (E+I)
   (N)  Total quantum mech. energy...   -5575.60078934554  (A+L)
   (O)  Gas phase energy.............   -5575.56171040526
   (P)  Solution phase energy........   -5575.58065109966  (Q+R+S)
   (Q)    Total solute energy........   -5575.56051285379  (N-C-G)
   (R)    Total solvent energy.......      -0.02013824588  (C/2+G/2)
   (S)    Solute cavity energy.......       0.00000000000
   (U)  Reorganization energy........       0.00119755147  (Q-O)
   (V)  Solvation energy.............      -0.01894069441  (P-O)
  
 SCFE:  Solution phase energy: DFT(m06-2x)      -5575.58065109966 hartrees
        SCF iterations:   2
  
 
 HOMO energy:    -0.28917
 LUMO energy:    -0.07782
 
  Orbital energies (hartrees): 
   -66.10060   -65.23618   -64.13646   -60.78007   -56.97116   -40.59259
   -35.65720   -32.90081   -25.20224   -23.73167   -18.70513   -17.53773
   -17.22081   -16.91785   -16.63584   -15.51705   -15.32453   -14.86981
   -14.61495   -13.31724   -13.18985   -12.87446   -12.61155   -12.33225
   -12.07954   -11.88333   -11.78684   -11.78460   -11.73372   -11.66236
   -11.65933   -11.61793   -11.51038   -11.44169   -11.37565   -11.36083
   -11.21694   -11.21109   -11.18545   -11.03385   -11.03328   -10.86469
   -10.79648   -10.71848   -10.71377   -10.70148   -10.66801   -10.66110
   -10.65870   -10.63026   -10.56095   -10.55970   -10.55835   -10.54880
   -10.54584   -10.53222   -10.53088   -10.52643   -10.52500   -10.52488
   -10.52355   -10.52101   -10.51880   -10.51751   -10.51400   -10.50946
   -10.50844   -10.50632   -10.49911   -10.47948   -10.43634   -10.43594
   -10.42629   -10.42305   -10.40933   -10.40518   -10.39166   -10.38239
   -10.36677   -10.35457   -10.30141   -10.28650   -10.23696   -10.22324
   -10.15751   -10.09886   -10.02463    -9.87739    -9.82128    -9.69381
    -9.37855    -9.30981    -9.12480    -8.91491    -8.77799    -8.33917
    -8.18353    -8.02307    -7.61051    -7.31216    -7.31089    -7.05425
    -6.79529    -6.76333    -6.65546    -6.65404    -6.34511    -5.88020
    -4.71940    -4.61612    -4.53367    -4.18951    -1.46431    -1.42234
    -1.11121    -1.05627    -1.05242    -0.96709    -0.96609    -0.96517
    -0.95936    -0.95920    -0.95866    -0.95095    -0.94884    -0.91852
    -0.91181    -0.90552    -0.90085    -0.88416    -0.88337    -0.88333
    -0.87891    -0.87655    -0.86733    -0.86654    -0.86010    -0.85075
    -0.84922    -0.84292    -0.83800    -0.82590    -0.82502    -0.82105
    -0.82048    -0.81442    -0.80467    -0.80009    -0.79506    -0.78861
    -0.78770    -0.78764    -0.78256    -0.77344    -0.76867    -0.76785
    -0.76512    -0.76293    -0.75566    -0.75218    -0.75116    -0.74943
    -0.73800    -0.73512    -0.73404    -0.73382    -0.73236    -0.73069
    -0.72500    -0.72484    -0.70962    -0.70938    -0.70577    -0.69390
    -0.69194    -0.69156    -0.67097    -0.67076    -0.67020    -0.66273
    -0.66136    -0.65753    -0.65284    -0.65138    -0.65010    -0.64823
    -0.64218    -0.64007    -0.63938    -0.63366    -0.63027    -0.62858
    -0.62305    -0.62231    -0.62012    -0.61887    -0.61412    -0.61178
    -0.60473    -0.60235    -0.59484    -0.59393    -0.59390    -0.59389
    -0.59368    -0.59083    -0.59023    -0.58845    -0.58813    -0.58725
    -0.58276    -0.58137    -0.58063    -0.57712    -0.57592    -0.57194
    -0.56832    -0.56442    -0.56371    -0.56200    -0.56145    -0.55864
    -0.55715    -0.55529    -0.55414    -0.54706    -0.54683    -0.54558
    -0.54489    -0.53623    -0.53582    -0.53518    -0.53218    -0.52733
    -0.52523    -0.52458    -0.52456    -0.52246    -0.52200    -0.52144
    -0.51673    -0.51535    -0.51447    -0.51192    -0.50679    -0.50478
    -0.50313    -0.50183    -0.50100    -0.50091    -0.49847    -0.49446
    -0.49393    -0.49322    -0.49272    -0.48907    -0.48733    -0.48610
    -0.48586    -0.48491    -0.48456    -0.48378    -0.48332    -0.48202
    -0.48109    -0.48101    -0.48081    -0.47966    -0.47776    -0.47716
    -0.47597    -0.47566    -0.47422    -0.47362    -0.47252    -0.47241
    -0.47225    -0.47216    -0.47077    -0.47040    -0.47012    -0.46998
    -0.46995    -0.46805    -0.46632    -0.46367    -0.46340    -0.46235
    -0.46190    -0.45838    -0.45751    -0.45648    -0.45389    -0.45187
    -0.45154    -0.45059    -0.44862    -0.44776    -0.44766    -0.44488
    -0.44478    -0.44304    -0.44233    -0.44144    -0.43878    -0.43717
    -0.43712    -0.43649    -0.43608    -0.43412    -0.43279    -0.42980
    -0.42489    -0.42402    -0.42117    -0.41971    -0.41787    -0.41692
    -0.40928    -0.40812    -0.40625    -0.40256    -0.39635    -0.39552
    -0.38848    -0.38316    -0.37117    -0.36644    -0.35887    -0.34750
    -0.34104    -0.33968    -0.33225    -0.33109    -0.32872    -0.32270
    -0.31895    -0.31076    -0.30690    -0.28917    -0.07782    -0.02961
    -0.01731    -0.00756    -0.00029     0.00960     0.01294     0.01546
     0.02042     0.02085
 
  Peak memory usage:   1029 Mb
  
  end of program scf
   
 Time(scf)  user:     2259.9  user+sys:     2259.9  wallclock:     2292.8
  
  start of program sole
  
    SCRF                   solvation energy
  iteration          Hartrees            kcal/mol
     0               0.0000000            0.0000
     1              -0.0178359          -11.1922
     2              -0.0189407          -11.8855
  
  solvation energy not yet converged... 
  
  Peak memory usage:    813 Mb
  
  end of program sole
   
 Time(sole)  user:        0.1  user+sys:        0.1  wallclock:        0.1
  
  start of program ch
  
  gridpoints used for charge fit        16858
    out of a possible maximum of        16858
  
   Electrostatic potential fitting constrained to reproduce
     total charge:                yes
     dipole moment:               no 
     traceless quadrupole moment: no 
     traceless octapole moment:   no 
  
  Atomic charges from electrostatic potential: 
   
 Atom       C1           C2           C3           C4           C5      
 Charge   -0.04791     -0.07767     -0.21556      0.19499      0.11407
   
 Atom       C6           C7           C8           C9           C10     
 Charge   -0.24926     -0.28016     -0.08483      0.13375     -0.42284
   
 Atom       C11          O12          Si13         C14          C15     
 Charge    0.00804     -0.25527     -0.27296      0.16439      0.53648
   
 Atom       C16          C17          C18          C19          C20     
 Charge    0.22865     -0.13679     -0.34282     -0.28905     -0.04725
   
 Atom       Si21         O22          C23          C24          P25     
 Charge   -0.29888     -0.38349     -0.19376     -0.08742      0.87589
   
 Atom       O26          N27          C28          C29          C30     
 Charge   -0.60157     -0.57478      0.20436      0.20653      0.32424
   
 Atom       C31          C32          C33          C34          C35     
 Charge    0.44479      0.24144      0.07268     -0.17260     -0.24550
   
 Atom       C36          C37          C38          C39          C40     
 Charge   -0.15142     -0.21539     -0.19034     -0.27819     -0.32917
   
 Atom       C41          C42          C43          C44          C45     
 Charge   -0.22679     -0.17982     -0.23041     -0.04611     -0.19922
   
 Atom       C46          C47          C48          C49          C50     
 Charge   -0.14592     -0.16784     -0.08927     -0.18013     -0.10285
   
 Atom       C51          C52          C53          C54          C55     
 Charge   -0.16038     -0.16302     -0.11830     -0.14821     -0.18368
   
 Atom       C56          C57          C58          C59          C60     
 Charge   -0.05562     -0.17639     -0.14900     -0.16600     -0.11475
   
 Atom       C61          C62          C63          C64          C65     
 Charge   -0.17042     -0.14601     -0.10733     -0.11768     -0.31773
   
 Atom       C66          C67          C68          C69          C70     
 Charge    0.39842     -0.08292     -0.04894     -0.15120     -0.14437
   
 Atom       N71          S72          O73          O74          C75     
 Charge   -0.06208      0.66866     -0.42055     -0.40895      0.48196
   
 Atom       C76          C77          C78          C79          N80     
 Charge   -0.32204      0.11999     -0.36819      0.32885     -0.56640
   
 Atom       N81          C82          C83          C84          C85     
 Charge    0.15853     -0.36281     -0.12746     -0.38374     -0.08366
   
 Atom       H86          H87          H88          H89          H90     
 Charge    0.09797      0.15923      0.15247      0.17042      0.13654
   
 Atom       H91          H92          H93          H94          H95     
 Charge    0.11997      0.17831      0.16522      0.15359      0.13334
   
 Atom       H96          H97          H98          H99          H100    
 Charge    0.11125      0.14300      0.14411      0.13981      0.13199
   
 Atom       H101         H102         H103         H104         H105    
 Charge    0.16305      0.16238      0.16534      0.13713      0.10486
   
 Atom       H106         H107         H108         H109         H110    
 Charge    0.09123      0.13779      0.14324      0.14312      0.12986
   
 Atom       H111         H112         H113         H114         H115    
 Charge    0.14057      0.12740      0.14636      0.13593      0.11517
   
 Atom       H116         H117         H118         H119         H120    
 Charge    0.14320      0.12018      0.09579      0.14500      0.14065
   
 Atom       H121         H122         H123         H124         H125    
 Charge    0.14413      0.13991      0.14315      0.14032      0.12720
   
 Atom       H126         H127         H128         H129         H130    
 Charge    0.16362      0.19506      0.14222      0.09263      0.15563
   
 Atom       H131         H132         H133         H134         H135    
 Charge    0.15845      0.17570      0.13621      0.19394      0.08013
   
 Atom       H136         H137         H138         H139         H140    
 Charge    0.20035      0.20528      0.14841      0.19510      0.12868
   
 Atom       S141         O142         C143         O144         F145    
 Charge    0.66706     -0.42123      0.47819     -0.45684     -0.11160
   
 Atom       F146         F147         H148    
 Charge   -0.15139     -0.16200      0.20056
  
  sum of atomic charges:     0.000000
   
 RMS Error   9.82E-04 hartrees
 
  Peak memory usage:    816 Mb
  
  end of program ch
   
 Time(ch)  user:       17.0  user+sys:       17.0  wallclock:       18.3
  
  start of program post
  
  Writing input files for PBF
  Peak memory usage:    759 Mb
  
  end of program post
   
 Time(post)  user:        0.6  user+sys:        0.6  wallclock:        0.9

  start of program pbf

Pbf Version 4.10

Molecular surface area:      840.77533   [A2]
Reaction field energy:       -19.34642   [kT]
  Peak memory usage: 722 Mb

  end of program pbf

 Time(pbf)  user:       17.9  user+sys:       17.9  wallclock:       17.9
  
  start of program solv
  
   number of surface charges from PBF   13570
   sum of surface charges     -0.00059
   
  nuclear repulsion energy.......   20873.447215236 hartrees
  Peak memory usage:    894 Mb
  
  end of program solv
   
 Time(solv)  user:       32.7  user+sys:       32.7  wallclock:       32.8
  
  start of program scf
  
 Energy computed with NOPS off.
  
       i  u  d  i  g                   
       t  p  i  c  r                                 RMS    maximum
       e  d  i  u  i                       energy  density   DIIS  
       r  t  s  t  d       total energy    change  change    error 
  
etot    1  N  N  1  U   -5575.60108461706           4.4E-06  1.1E-04
etot    2  N  N  1  U   -5575.60107229108 -1.2E-05  0.0E+00  0.0E+00
  
  
 Energy components, in hartrees:
   (A)  Total zero-electron terms....   20876.54631602372
   (B)    Nuclear-nuclear............   20873.44721523609
   (C)    Nuclear-solvent............       3.09910078763
   (E)  Total one-electron terms.....  -49280.20398533597
   (F)    Electron-nuclear...........  -54813.17084775079
   (G)    Electron-solvent...........      -3.13966812257
   (H)    Kinetic....................    5536.10653053739
   (I)  Total two-electron terms.....   22828.05659702117
   (J)    Coulomb....................   23479.30895080055
   (K)    Exchange+Correlation.......    -651.25235377938
   (L)  Electronic energy............  -26452.14738831480  (E+I)
   (N)  Total quantum mech. energy...   -5575.60107229108  (A+L)
   (O)  Gas phase energy.............   -5575.56171040526
   (P)  Solution phase energy........   -5575.58078862361  (Q+R+S)
   (Q)    Total solute energy........   -5575.56050495613  (N-C-G)
   (R)    Total solvent energy.......      -0.02028366747  (C/2+G/2)
   (S)    Solute cavity energy.......       0.00000000000
   (U)  Reorganization energy........       0.00120544912  (Q-O)
   (V)  Solvation energy.............      -0.01907821835  (P-O)
  
 SCFE:  Solution phase energy: DFT(m06-2x)      -5575.58078862361 hartrees
        SCF iterations:   2
  
 
 HOMO energy:    -0.24663
 LUMO energy:    -0.07721
 
  Orbital energies (hartrees): 
   -90.19222   -90.15018   -78.21123   -67.00731   -67.00566   -25.28795
   -25.28563   -25.28330   -19.69653   -19.69398   -19.67895   -19.67770
   -19.62765   -19.62340   -19.60301   -14.85720   -14.80207   -14.78025
   -14.75184   -10.80270   -10.67939   -10.64492   -10.62372   -10.62364
   -10.61564   -10.59558   -10.59517   -10.59186   -10.58819   -10.58474
   -10.57805   -10.57545   -10.57124   -10.57085   -10.56729   -10.56664
   -10.56611   -10.56428   -10.56375   -10.56067   -10.55774   -10.55437
   -10.55415   -10.55389   -10.55286   -10.55270   -10.55247   -10.55242
   -10.55190   -10.55162   -10.55134   -10.55130   -10.55091   -10.55090
   -10.55083   -10.55073   -10.54995   -10.54936   -10.54870   -10.54855
   -10.54845   -10.54808   -10.54784   -10.54740   -10.54672   -10.54638
   -10.54586   -10.54552   -10.54419   -10.54414   -10.54413   -10.54357
   -10.54355   -10.54331   -10.54243   -10.54226   -10.54102   -10.54069
   -10.54040   -10.54022   -10.53830   -10.53794   -10.53790   -10.53709
   -10.53447   -10.53209   -10.53046   -10.52697   -10.52649   -10.52455
   -10.52098   -10.51785    -8.50359    -8.45927    -6.99107    -6.42597
    -6.42467    -6.42353    -6.38109    -6.38076    -6.38050    -5.53863
    -5.53721    -5.10932    -5.10866    -5.10681    -3.84836    -3.84822
    -3.84783    -3.84703    -3.84677    -3.84632    -1.45306    -1.36219
    -1.36097    -1.27002    -1.22968    -1.21617    -1.18786    -1.16036
    -1.10552    -1.09940    -1.09286    -1.08724    -1.06190    -0.98897
    -0.98307    -0.97938    -0.96627    -0.94658    -0.94314    -0.94228
    -0.93689    -0.93629    -0.93381    -0.93238    -0.92230    -0.90963
    -0.90817    -0.89020    -0.88902    -0.86270    -0.85295    -0.84838
    -0.84490    -0.84147    -0.83775    -0.83499    -0.83434    -0.83405
    -0.82949    -0.82943    -0.82896    -0.82661    -0.82624    -0.82459
    -0.82349    -0.82175    -0.82088    -0.81964    -0.81589    -0.79970
    -0.79433    -0.77536    -0.75723    -0.74698    -0.72851    -0.72317
    -0.70920    -0.70579    -0.70451    -0.70005    -0.69780    -0.68975
    -0.68120    -0.67986    -0.67804    -0.67765    -0.67569    -0.67488
    -0.67374    -0.67176    -0.66941    -0.66697    -0.66296    -0.66202
    -0.65902    -0.65901    -0.65767    -0.65385    -0.64926    -0.64751
    -0.64191    -0.63391    -0.62710    -0.62587    -0.62409    -0.60766
    -0.60470    -0.60195    -0.59945    -0.59167    -0.58325    -0.58154
    -0.58057    -0.57971    -0.57923    -0.57765    -0.57587    -0.57420
    -0.57199    -0.56111    -0.55918    -0.55746    -0.55665    -0.55254
    -0.55125    -0.54761    -0.54426    -0.53929    -0.53685    -0.53186
    -0.52637    -0.52466    -0.52305    -0.52148    -0.51845    -0.51713
    -0.51635    -0.51506    -0.51425    -0.51206    -0.51082    -0.50916
    -0.50789    -0.50502    -0.50321    -0.50081    -0.50067    -0.50024
    -0.49970    -0.49797    -0.49686    -0.49538    -0.49507    -0.49366
    -0.49264    -0.49101    -0.48983    -0.48886    -0.48656    -0.48342
    -0.48270    -0.48106    -0.48062    -0.47641    -0.47514    -0.47273
    -0.47141    -0.47053    -0.46670    -0.46615    -0.46071    -0.45954
    -0.45455    -0.45188    -0.45011    -0.44985    -0.44793    -0.44570
    -0.44333    -0.43892    -0.43510    -0.43467    -0.43427    -0.43124
    -0.42938    -0.42804    -0.42750    -0.42465    -0.42369    -0.42120
    -0.42004    -0.41941    -0.41604    -0.41513    -0.41419    -0.41232
    -0.41140    -0.40576    -0.40191    -0.39913    -0.39634    -0.39370
    -0.39314    -0.39032    -0.39004    -0.38693    -0.38592    -0.38520
    -0.38266    -0.38088    -0.37775    -0.37555    -0.37407    -0.36863
    -0.36698    -0.36042    -0.35607    -0.35361    -0.35114    -0.34523
    -0.34362    -0.34114    -0.34078    -0.33992    -0.33801    -0.33670
    -0.33244    -0.32813    -0.32634    -0.32269    -0.30796    -0.30411
    -0.30182    -0.30125    -0.30061    -0.29701    -0.29446    -0.29316
    -0.29164    -0.29059    -0.28786    -0.28568    -0.28483    -0.27968
    -0.27627    -0.27259    -0.25079    -0.24663    -0.07721    -0.02948
    -0.01693    -0.00760    -0.00008     0.01010     0.01341     0.01581
     0.02058     0.02097
 
  Peak memory usage:   1029 Mb
  
  end of program scf
   
 Time(scf)  user:     2256.8  user+sys:     2256.8  wallclock:     2288.6
  
  start of program sole
  
    SCRF                   solvation energy
  iteration          Hartrees            kcal/mol
     0               0.0000000            0.0000
     1              -0.0178359          -11.1922
     2              -0.0189407          -11.8855
     3              -0.0190782          -11.9718
  
  stopping: solvation energy converged
  
  iterations:   3    sfinal:    -11.9718 kcal/mol
  
  Peak memory usage:    813 Mb
  
  end of program sole
   
 Time(sole)  user:        0.1  user+sys:        0.1  wallclock:        0.1
  
  start of program post
  
  Writing input files for PBF
  Peak memory usage:    759 Mb
  
  end of program post
   
 Time(post)  user:        0.6  user+sys:        0.6  wallclock:        0.9

 Total cpu seconds     user:   42267.272   user+sys:   42267.272
  
 Total elapsed time:    42964 seconds

Job Toru-SiPh3-NTf-Type-I-E-3-chkp-unrestrained-IRC-max-disp-2.mol2-SPE completed on tethys at Wed Mar 22 22:34:51 2017
