Job Toru-SiPh3-Type-I-E-2-chkp4-unrestrained-m06-2-restrained-unrestrained-SPE started on tethys at Tue Mar  7 15:43:26 2017
jobid: tethys-0-58bed51c

  +--------------------------------------------------------------------+
  |  Jaguar version 9.5, release  11                                   |
  |                                                                    |
  |  Copyright Schrodinger, Inc.                                       |
  |  All Rights Reserved.                                              |
  |                                                                    |
  |  The following have contributed to Jaguar (listed alphabetically): |
  |  Mike Beachy, Art Bochevarov, Dale Braden, Yixiang Cao,            |
  |  Chris Cortis, Rich Friesner, Bill Goddard, Hod Greeley,           |
  |  Tom Hughes, Leif Jacobson, Jean-Marc Langlois,                    |
  |  Daniel Mainz, Rob Murphy, Dean Philipp, Tom Pollard,              |
  |  Murco Ringnalda, Mark Watson, Haoyu Yu.                           |
  |                                                                    |
  |  Use of this program should be acknowledged in publications as:    |
  |                                                                    |
  |  Jaguar, version 9.5, Schrodinger, Inc., New York, NY, 2017.       |
  |                                                                    |
  |  A. D. Bochevarov, E. Harder, T. F. Hughes, J. R. Greenwood,       |
  |  D. A. Braden, D. M. Philipp, D. Rinaldo, M. D. Halls,             |
  |  J. Zhang, R. A. Friesner, "Jaguar: A High-Performance Quantum     |
  |  Chemistry Software Program with Strengths in Life and Materials   |
  |  Sciences", Int. J. Quantum Chem., 2013, 113(18), 2110-2142.       |
  +--------------------------------------------------------------------+
  
  start of program pre
  
  Job name: 
 Toru-SiPh3-Type-I-E-2-chkp4-unrestrained-m06-2-restrained-unrestrained-SPE
  Executables used: /usr/local/shared/schrodinger/current/jaguar-v9.5/bin/Linux-x86_64
  Temporary files : /scratch/ab2144/Toru-SiPh3-Type-I-E-2-chkp4-unrestrained-m06-2-restrained-unrestrained-SPE
  Maestro file (input):  Toru-SiPh3-Type-I-E-2-chkp4-unrestrained-m06-2-restrained-unrestrained-SPE.mae
  Maestro file (output): Toru-SiPh3-Type-I-E-2-chkp4-unrestrained-m06-2-restrained-unrestrained-SPE.01.mae
  
  basis set:             6-31g**                         
  net molecular charge:    0
  multiplicity:            1
  
  keygrid settings 
    wispc.....   7.500E-01
    ldens.....   0
    denspc....   7.500E-01
  
   grid     daf set  nls  grid set  Q type
  ------    -------  ---  --------  ------
  coarse       1      1       1        1
  medium       2      2       2        1
  fine         3      2       3        0
  ultrafine    4      2       4        1
  charge       0      1      -1        1
  gradient     5      2       4        1
  density      0      1       0        0
  DFT-fine     0      1     -13        0
  DFT-med.     0      1     -13        0
  DFT-grad     0      1     -13        0
  DFT-der2     0      1       0        0
  DFT-cphf     0      1       0        0
  LMP2-enrg    4      2       4        1
  LMP2-grad    5      2       2        1
  DFT-cphf2    0      1       0        0
  PBF-dens     0      1       0        0
  plotting     0      1       0        0
  Rel-grad     0      1     -17        0
  
  idftgrdm  100
  ndftgrdm   50    0    0
  idftgrdf  111
  ndftgrdf   85    0    0
  idftgrdg  111
  ndftgrdg   80    3    0
  idftgrdu  433
  ndftgrdu  105    0    0
  idftgrdd  433
  ndftgrdd  105    0    0
  idftgrdc  433
  ndftgrdc   26    0    0
  idftgrdp  433
  ndftgrdp   18    0    0
  
  number of basis functions....         1571
  
 Input geometry:
                                   angstroms
  atom               x                 y                 z
  C1           -0.1807000000     -5.3674000000     -0.7137000000 
  C2           -1.1394000000     -4.2392000000     -0.5431000000 
  C3           -0.6039000000     -6.5544000000     -1.1632000000 
  C4           -2.4284000000     -4.4203000000     -0.9005000000 
  C5           -0.6991000000     -2.9068000000     -0.0268000000 
  C6           -2.8889000000     -5.7408000000     -1.3905000000 
  C7           -3.3794000000     -3.2986000000     -0.8279000000 
  C8           -2.0236000000     -6.7530000000     -1.5086000000 
  C9           -1.5397000000     -1.8441000000     -0.1079000000 
  C10           0.6736000000     -2.7326000000      0.5135000000 
  C11          -2.9686000000     -2.0694000000     -0.4822000000 
  O12          -1.1546000000     -0.6088000000      0.3607000000 
  Si13         -4.2144000000     -0.6781000000     -0.4026000000 
  C14           1.1557000000     -3.4533000000      1.5519000000 
  C15           1.5624000000     -1.7772000000     -0.1899000000 
  C16           2.5984000000     -3.3645000000      1.8957000000 
  C17           0.3067000000     -4.3429000000      2.3830000000 
  C18           3.4183000000     -2.5880000000      1.1744000000 
  C19           3.1089000000     -4.1736000000      3.0198000000 
  C20           2.8885000000     -1.7746000000      0.0568000000 
  Si21          4.0772000000     -0.7465000000     -0.9467000000 
  O22           1.0083000000     -0.9345000000     -1.1165000000 
  C23           0.8403000000     -5.0451000000      3.3896000000 
  C24           2.2810000000     -4.9620000000      3.7142000000 
  P25           0.0421000000      0.1918000000     -0.4497000000 
  O26          -0.5094000000      1.0141000000     -1.5716000000 
  O27           0.7923000000      0.9196000000      0.6397000000 
  C28          -3.9510000000      0.5286000000     -1.7921000000 
  C29          -5.9456000000     -1.3128000000     -0.6548000000 
  C30          -4.0764000000      0.0781000000      1.2904000000 
  C31           4.1991000000      0.9589000000     -0.2104000000 
  C32           5.7538000000     -1.5614000000     -0.9213000000 
  C33           3.4535000000     -0.6672000000     -2.7028000000 
  C34          -3.0457000000      0.2837000000     -2.7537000000 
  C35          -4.8415000000      1.7080000000     -1.9176000000 
  C36          -6.8557000000     -1.2876000000      0.3340000000 
  C37          -6.3396000000     -1.8138000000     -1.9944000000 
  C38          -4.0704000000      1.4076000000      1.4750000000 
  C39          -4.0188000000     -0.8214000000      2.4684000000 
  C40           4.7491000000      1.9647000000     -0.9119000000 
  C41           3.7344000000      1.2077000000      1.1755000000 
  C42           6.8724000000     -0.8511000000     -0.6938000000 
  C43           5.8552000000     -3.0285000000     -1.1223000000 
  C44           3.6066000000     -1.7082000000     -3.5386000000 
  C45           2.7034000000      0.5248000000     -3.1648000000 
  C46          -2.8845000000      1.2241000000     -3.8821000000 
  C47          -3.6693000000      2.3038000000     -3.9724000000 
  C48          -4.7006000000      2.5535000000     -2.9457000000 
  C49          -8.2293000000     -1.7769000000      0.0920000000 
  C50          -8.5757000000     -2.2365000000     -1.1161000000 
  C51          -7.5850000000     -2.2537000000     -2.2109000000 
  C52          -4.0439000000      1.9674000000      2.8422000000 
  C53          -3.9969000000      1.1518000000      3.9019000000 
  C54          -3.9778000000     -0.3115000000      3.7053000000 
  C55           4.8553000000      3.3144000000     -0.3204000000 
  C56           4.4146000000      3.5379000000      0.9228000000 
  C57           3.8355000000      2.4313000000      1.7097000000 
  C58           8.1891000000     -1.5220000000     -0.6693000000 
  C59           8.2735000000     -2.8430000000     -0.8633000000 
  C60           7.0488000000     -3.6335000000     -1.0962000000 
  C61           3.0690000000     -1.6460000000     -4.9142000000 
  C62           2.4070000000     -0.5593000000     -5.3278000000 
  C63           2.2079000000      0.5764000000     -4.4066000000 
  C64           1.5102000000      6.5898000000     -1.7050000000 
  C65           0.8595000000      6.1276000000     -0.5664000000 
  C66           0.8826000000      4.7691000000     -0.2402000000 
  C67           1.5293000000      3.8607000000     -1.0861000000 
  C68           2.1695000000      4.3267000000     -2.2277000000 
  C69           2.1675000000      5.6873000000     -2.5339000000 
  C70           0.2004000000      4.3437000000      0.9919000000 
  N71           0.6097000000      3.2273000000      1.6535000000 
  S72           0.1465000000      3.1371000000      3.2766000000 
  O73           0.9970000000      4.0103000000      4.0564000000 
  O74          -1.3033000000      3.3250000000      3.3314000000 
  C75           0.4933000000      1.4094000000      3.6224000000 
  C76          -0.4411000000      0.4646000000      3.2220000000 
  C77          -0.1568000000     -0.8594000000      3.5267000000 
  C78           1.0241000000     -1.1504000000      4.2002000000 
  C79           1.8909000000     -0.1095000000      4.5267000000 
  N80           1.6318000000      1.1675000000      4.2444000000 
  N81          -1.5091000000      3.3515000000     -0.9282000000 
  C82          -1.7284000000      4.2681000000     -1.8629000000 
  C83          -2.2080000000      5.4547000000     -1.2661000000 
  C84          -2.2476000000      5.2161000000      0.0936000000 
  C85          -1.7139000000      3.9175000000      0.3254000000 
  H86           0.8705000000     -5.2404000000     -0.4936000000 
  H87           0.0972000000     -7.3698000000     -1.2856000000 
  H88          -3.9277000000     -5.8904000000     -1.6574000000 
  H89          -4.4130000000     -3.4910000000     -1.0756000000 
  H90          -2.3602000000     -7.7167000000     -1.8683000000 
  H91          -0.7578000000     -4.4203000000      2.2036000000 
  H92           4.4710000000     -2.5347000000      1.4240000000 
  H93           4.1577000000     -4.1352000000      3.2887000000 
  H94           0.2042000000     -5.6834000000      3.9893000000 
  H95           2.6687000000     -5.5491000000      4.5367000000 
  H96           0.7474000000      2.2573000000      1.1495000000 
  H97          -2.4205000000     -0.5986000000     -2.7219000000 
  H98          -5.6199000000      1.8840000000     -1.1860000000 
  H99          -6.6080000000     -0.9111000000      1.3163000000 
  H100         -5.6196000000     -1.8272000000     -2.8034000000 
  H101         -4.1018000000      2.0903000000      0.6406000000 
  H102         -4.0100000000     -1.8957000000      2.3330000000 
  H103          5.1162000000      1.8030000000     -1.9177000000 
  H104          3.3137000000      0.4041000000      1.7655000000 
  H105          6.8370000000      0.2159000000     -0.5291000000 
  H106          4.9625000000     -3.6226000000     -1.2704000000 
  H107          4.1167000000     -2.6065000000     -3.2260000000 
  H108          2.5170000000      1.3413000000     -2.4868000000 
  H109         -2.1298000000      1.0363000000     -4.6348000000 
  H110         -3.5520000000      2.9941000000     -4.7976000000 
  H111         -5.3489000000      3.4156000000     -3.0332000000 
  H112         -8.9550000000     -1.7604000000      0.8949000000 
  H113         -9.5817000000     -2.5937000000     -1.2943000000 
  H114         -7.8694000000     -2.6208000000     -3.1885000000 
  H115         -4.0612000000      3.0403000000      2.9830000000 
  H116         -3.9710000000      1.5617000000      4.9031000000 
  H117         -3.9326000000     -0.9695000000      4.5632000000 
  H118          5.2808000000      4.1236000000     -0.8995000000 
  H119          4.4827000000      4.5279000000      1.3546000000 
  H120          3.4951000000      2.6140000000      2.7200000000 
  H121          9.0852000000     -0.9409000000     -0.4939000000 
  H122          9.2372000000     -3.3353000000     -0.8445000000 
  H123          7.1183000000     -4.7044000000     -1.2370000000 
  H124          3.2093000000     -2.4840000000     -5.5846000000 
  H125          2.0091000000     -0.5141000000     -6.3333000000 
  H126          1.6480000000      1.4437000000     -4.7323000000 
  H127          1.5026000000      7.6485000000     -1.9414000000 
  H128          0.3361000000      6.8234000000      0.0840000000 
  H129          1.5260000000      2.8016000000     -0.8412000000 
  H130          2.6813000000      3.6343000000     -2.8855000000 
  H131          2.6779000000      6.0403000000     -3.4244000000 
  H132         -0.0887000000      5.1622000000      1.6503000000 
  H133         -1.3273000000      0.7493000000      2.6713000000 
  H134         -0.8471000000     -1.6427000000      3.2333000000 
  H135          1.2806000000     -2.1681000000      4.4704000000 
  H136          2.8298000000     -0.3055000000      5.0366000000 
  H137         -1.1239000000      2.3798000000     -1.1410000000 
  H138         -1.5234000000      4.0553000000     -2.9032000000 
  H139         -2.4686000000      6.3617000000     -1.7905000000 
  H140         -2.5620000000      5.8936000000      0.8762000000 
  H141         -1.9265000000      3.2935000000      1.1826000000 
   
  principal moments of inertia:
        amu*angstrom^2:    17114.53920    21552.39448    26353.32838
                g*cm^2: 2.84193574E-36 3.57885886E-36 4.37607259E-36
   
  rotational constants:
               cm^(-1):      0.00098499      0.00078217      0.00063968
                   GHz:      0.02952922      0.02344886      0.01917705
   
  Molecular weight:    1177.32 amu
   
  Stoichiometry: Si2C72PN3H56SO6
[running at reduced cpu priority]
  Molecular Point Group: C1      
  Point Group used: C1
  
  nuclear repulsion energy.......   17668.796879549 hartrees
 
 Non-default options chosen:
   SCF calculation type: DFT(m06-2x)                 
   DFT=M06-2X
   Solvation energy will be computed using PBF
     -solute cavity energy will not be included
     -surface area terms will not be included
   Highest accuracy cutoffs used in SCF
   Solvent: other                                                           
   Internal dielectric constant:    1.000
   Continuum dielectric constant:   2.380
   Solvent probe molecule radius:   2.760
  
 Temporary integer options set:
     73=  2
  
  atom       vdw   vdw2    cov     mass  grid  daf  charge   basis
  C1        1.949  1.900  0.770   12.000    Y    Y      Y    6-31g**
  C2        1.949  1.900  0.770   12.000    Y    Y      Y    6-31g**
  C3        1.949  1.900  0.770   12.000    Y    Y      Y    6-31g**
  C4        1.949  1.900  0.770   12.000    Y    Y      Y    6-31g**
  C5        1.949  1.900  0.770   12.000    Y    Y      Y    6-31g**
  C6        1.949  1.900  0.770   12.000    Y    Y      Y    6-31g**
  C7        1.949  1.900  0.770   12.000    Y    Y      Y    6-31g**
  C8        1.949  1.900  0.770   12.000    Y    Y      Y    6-31g**
  C9        1.949  1.900  0.770   12.000    Y    Y      Y    6-31g**
  C10       1.949  1.900  0.770   12.000    Y    Y      Y    6-31g**
  C11       1.949  1.900  0.770   12.000    Y    Y      Y    6-31g**
  O12       1.702  1.600  0.730   15.995    Y    Y      Y    6-31g**
  Si13      2.217  2.147  1.110   27.977    Y    Y      Y    6-31g**
  C14       1.949  1.900  0.770   12.000    Y    Y      Y    6-31g**
  C15       1.949  1.900  0.770   12.000    Y    Y      Y    6-31g**
  C16       1.949  1.900  0.770   12.000    Y    Y      Y    6-31g**
  C17       1.949  1.900  0.770   12.000    Y    Y      Y    6-31g**
  C18       1.949  1.900  0.770   12.000    Y    Y      Y    6-31g**
  C19       1.949  1.900  0.770   12.000    Y    Y      Y    6-31g**
  C20       1.949  1.900  0.770   12.000    Y    Y      Y    6-31g**
  Si21      2.217  2.147  1.110   27.977    Y    Y      Y    6-31g**
  O22       1.702  1.600  0.730   15.995    Y    Y      Y    6-31g**
  C23       1.949  1.900  0.770   12.000    Y    Y      Y    6-31g**
  C24       1.949  1.900  0.770   12.000    Y    Y      Y    6-31g**
  P25       2.147  2.074  1.060   30.974    Y    Y      Y    6-31g**
  O26       1.702  1.600  0.730   15.995    Y    Y      Y    6-31g**
  O27       1.702  1.600  0.730   15.995    Y    Y      Y    6-31g**
  C28       1.949  1.900  0.770   12.000    Y    Y      Y    6-31g**
  C29       1.949  1.900  0.770   12.000    Y    Y      Y    6-31g**
  C30       1.949  1.900  0.770   12.000    Y    Y      Y    6-31g**
  C31       1.949  1.900  0.770   12.000    Y    Y      Y    6-31g**
  C32       1.949  1.900  0.770   12.000    Y    Y      Y    6-31g**
  C33       1.949  1.900  0.770   12.000    Y    Y      Y    6-31g**
  C34       1.949  1.900  0.770   12.000    Y    Y      Y    6-31g**
  C35       1.949  1.900  0.770   12.000    Y    Y      Y    6-31g**
  C36       1.949  1.900  0.770   12.000    Y    Y      Y    6-31g**
  C37       1.949  1.900  0.770   12.000    Y    Y      Y    6-31g**
  C38       1.949  1.900  0.770   12.000    Y    Y      Y    6-31g**
  C39       1.949  1.900  0.770   12.000    Y    Y      Y    6-31g**
  C40       1.949  1.900  0.770   12.000    Y    Y      Y    6-31g**
  C41       1.949  1.900  0.770   12.000    Y    Y      Y    6-31g**
  C42       1.949  1.900  0.770   12.000    Y    Y      Y    6-31g**
  C43       1.949  1.900  0.770   12.000    Y    Y      Y    6-31g**
  C44       1.949  1.900  0.770   12.000    Y    Y      Y    6-31g**
  C45       1.949  1.900  0.770   12.000    Y    Y      Y    6-31g**
  C46       1.949  1.900  0.770   12.000    Y    Y      Y    6-31g**
  C47       1.949  1.900  0.770   12.000    Y    Y      Y    6-31g**
  C48       1.949  1.900  0.770   12.000    Y    Y      Y    6-31g**
  C49       1.949  1.900  0.770   12.000    Y    Y      Y    6-31g**
  C50       1.949  1.900  0.770   12.000    Y    Y      Y    6-31g**
  C51       1.949  1.900  0.770   12.000    Y    Y      Y    6-31g**
  C52       1.949  1.900  0.770   12.000    Y    Y      Y    6-31g**
  C53       1.949  1.900  0.770   12.000    Y    Y      Y    6-31g**
  C54       1.949  1.900  0.770   12.000    Y    Y      Y    6-31g**
  C55       1.949  1.900  0.770   12.000    Y    Y      Y    6-31g**
  C56       1.949  1.900  0.770   12.000    Y    Y      Y    6-31g**
  C57       1.949  1.900  0.770   12.000    Y    Y      Y    6-31g**
  C58       1.949  1.900  0.770   12.000    Y    Y      Y    6-31g**
  C59       1.949  1.900  0.770   12.000    Y    Y      Y    6-31g**
  C60       1.949  1.900  0.770   12.000    Y    Y      Y    6-31g**
  C61       1.949  1.900  0.770   12.000    Y    Y      Y    6-31g**
  C62       1.949  1.900  0.770   12.000    Y    Y      Y    6-31g**
  C63       1.949  1.900  0.770   12.000    Y    Y      Y    6-31g**
  C64       1.949  1.900  0.770   12.000    Y    Y      Y    6-31g**
  C65       1.949  1.900  0.770   12.000    Y    Y      Y    6-31g**
  C66       1.949  1.900  0.770   12.000    Y    Y      Y    6-31g**
  C67       1.949  1.900  0.770   12.000    Y    Y      Y    6-31g**
  C68       1.949  1.900  0.770   12.000    Y    Y      Y    6-31g**
  C69       1.949  1.900  0.770   12.000    Y    Y      Y    6-31g**
  C70       1.949  1.900  0.770   12.000    Y    Y      Y    6-31g**
  N71       1.831  1.600  0.750   14.003    Y    Y      Y    6-31g**
  S72       2.070  1.900  1.020   31.972    Y    Y      Y    6-31g**
  O73       1.702  1.600  0.730   15.995    Y    Y      Y    6-31g**
  O74       1.702  1.600  0.730   15.995    Y    Y      Y    6-31g**
  C75       1.949  1.900  0.770   12.000    Y    Y      Y    6-31g**
  C76       1.949  1.900  0.770   12.000    Y    Y      Y    6-31g**
  C77       1.949  1.900  0.770   12.000    Y    Y      Y    6-31g**
  C78       1.949  1.900  0.770   12.000    Y    Y      Y    6-31g**
  C79       1.949  1.900  0.770   12.000    Y    Y      Y    6-31g**
  N80       1.831  1.600  0.750   14.003    Y    Y      Y    6-31g**
  N81       1.831  1.600  0.750   14.003    Y    Y      Y    6-31g**
  C82       1.949  1.900  0.770   12.000    Y    Y      Y    6-31g**
  C83       1.949  1.900  0.770   12.000    Y    Y      Y    6-31g**
  C84       1.949  1.900  0.770   12.000    Y    Y      Y    6-31g**
  C85       1.949  1.900  0.770   12.000    Y    Y      Y    6-31g**
  H86       1.597  1.150  0.320    1.008    Y    Y      Y    6-31g**
  H87       1.597  1.150  0.320    1.008    Y    Y      Y    6-31g**
  H88       1.597  1.150  0.320    1.008    Y    Y      Y    6-31g**
  H89       1.597  1.150  0.320    1.008    Y    Y      Y    6-31g**
  H90       1.597  1.150  0.320    1.008    Y    Y      Y    6-31g**
  H91       1.597  1.150  0.320    1.008    Y    Y      Y    6-31g**
  H92       1.597  1.150  0.320    1.008    Y    Y      Y    6-31g**
  H93       1.597  1.150  0.320    1.008    Y    Y      Y    6-31g**
  H94       1.597  1.150  0.320    1.008    Y    Y      Y    6-31g**
  H95       1.597  1.150  0.320    1.008    Y    Y      Y    6-31g**
  H96       1.597  1.150  0.320    1.008    Y    Y      Y    6-31g**
  H97       1.597  1.150  0.320    1.008    Y    Y      Y    6-31g**
  H98       1.597  1.150  0.320    1.008    Y    Y      Y    6-31g**
  H99       1.597  1.150  0.320    1.008    Y    Y      Y    6-31g**
  H100      1.597  1.150  0.320    1.008    Y    Y      Y    6-31g**
  H101      1.597  1.150  0.320    1.008    Y    Y      Y    6-31g**
  H102      1.597  1.150  0.320    1.008    Y    Y      Y    6-31g**
  H103      1.597  1.150  0.320    1.008    Y    Y      Y    6-31g**
  H104      1.597  1.150  0.320    1.008    Y    Y      Y    6-31g**
  H105      1.597  1.150  0.320    1.008    Y    Y      Y    6-31g**
  H106      1.597  1.150  0.320    1.008    Y    Y      Y    6-31g**
  H107      1.597  1.150  0.320    1.008    Y    Y      Y    6-31g**
  H108      1.597  1.150  0.320    1.008    Y    Y      Y    6-31g**
  H109      1.597  1.150  0.320    1.008    Y    Y      Y    6-31g**
  H110      1.597  1.150  0.320    1.008    Y    Y      Y    6-31g**
  H111      1.597  1.150  0.320    1.008    Y    Y      Y    6-31g**
  H112      1.597  1.150  0.320    1.008    Y    Y      Y    6-31g**
  H113      1.597  1.150  0.320    1.008    Y    Y      Y    6-31g**
  H114      1.597  1.150  0.320    1.008    Y    Y      Y    6-31g**
  H115      1.597  1.150  0.320    1.008    Y    Y      Y    6-31g**
  H116      1.597  1.150  0.320    1.008    Y    Y      Y    6-31g**
  H117      1.597  1.150  0.320    1.008    Y    Y      Y    6-31g**
  H118      1.597  1.150  0.320    1.008    Y    Y      Y    6-31g**
  H119      1.597  1.150  0.320    1.008    Y    Y      Y    6-31g**
  H120      1.597  1.150  0.320    1.008    Y    Y      Y    6-31g**
  H121      1.597  1.150  0.320    1.008    Y    Y      Y    6-31g**
  H122      1.597  1.150  0.320    1.008    Y    Y      Y    6-31g**
  H123      1.597  1.150  0.320    1.008    Y    Y      Y    6-31g**
  H124      1.597  1.150  0.320    1.008    Y    Y      Y    6-31g**
  H125      1.597  1.150  0.320    1.008    Y    Y      Y    6-31g**
  H126      1.597  1.150  0.320    1.008    Y    Y      Y    6-31g**
  H127      1.597  1.150  0.320    1.008    Y    Y      Y    6-31g**
  H128      1.597  1.150  0.320    1.008    Y    Y      Y    6-31g**
  H129      1.597  1.150  0.320    1.008    Y    Y      Y    6-31g**
  H130      1.597  1.150  0.320    1.008    Y    Y      Y    6-31g**
  H131      1.597  1.150  0.320    1.008    Y    Y      Y    6-31g**
  H132      1.597  1.150  0.320    1.008    Y    Y      Y    6-31g**
  H133      1.597  1.150  0.320    1.008    Y    Y      Y    6-31g**
  H134      1.597  1.150  0.320    1.008    Y    Y      Y    6-31g**
  H135      1.597  1.150  0.320    1.008    Y    Y      Y    6-31g**
  H136      1.597  1.150  0.320    1.008    Y    Y      Y    6-31g**
  H137      1.597  1.150  0.320    1.008    Y    Y      Y    6-31g**
  H138      1.597  1.150  0.320    1.008    Y    Y      Y    6-31g**
  H139      1.597  1.150  0.320    1.008    Y    Y      Y    6-31g**
  H140      1.597  1.150  0.320    1.008    Y    Y      Y    6-31g**
  H141      1.597  1.150  0.320    1.008    Y    Y      Y    6-31g**
  
  Peak memory usage:    766 Mb
  
  end of program pre
   
 Time(pre)  user:        0.8  user+sys:        0.8  wallclock:        1.1
  
  start of program onee
  
  smallest eigenvalue of S:    2.215E-04
  number of canonical orbitals.....         1564
  Peak memory usage:    893 Mb
  
  end of program onee
   
 Time(onee)  user:       13.9  user+sys:       13.9  wallclock:       23.0
  
  start of program hfig
  
  initial wavefunction generated automatically from atomic wavefunctions
 
  Irreducible     Total no   No of occupied orbitals 
  representation  orbitals   Shell_1  Shell_2    ...
  No Symm         1564        308
  ------------------------
  Orbital occupation/shell    1.000
 
  Peak memory usage:    826 Mb
  
  end of program hfig
   
 Time(hfig)  user:       22.9  user+sys:       22.9  wallclock:       24.3
  
  start of program probe
  
  Peak memory usage:    820 Mb
  
  end of program probe
   
 Time(probe)  user:       15.6  user+sys:       15.6  wallclock:       16.4
  
  start of program grid
  
   grid     grid set  grid #  grid sym
  ------    --------  ------  --------
  coarse        0        0        1
  medium        2        1        1
  fine          0        0        1
  ultrafine     4        2        1
  charge       -1        3        1
  gradient      4        2        1
  density       0        0        1
  DFT-fine    -13        4        1
  DFT-med.    -13        4        1
  DFT-grad    -13        4        1
  DFT-der2      0        0        1
  DFT-cphf      0        0        1
  LMP2-enrg     4        2        1
  LMP2-grad     2        1        1
  DFT-cphf2     0        0        1
  PBF-dens      0        0        1
  plotting      0        0        1
  Rel-grad    -17        0        1
  
  number of gridpoints: 
     atom        C1       C2       C3       C4       C5       C6       C7
  grid # 1       97      101       94      102      100       96       92
  grid # 2      338      360      336      366      357      336      336
  grid # 3       34       29       41       46       16       46       24
  grid # 4    48124    48124    48124    48124    48124    48124    48124
   
  number of gridpoints: 
     atom        C8       C9      C10      C11      O12     Si13      C14
  grid # 1       94       97      100      100      112      466      101
  grid # 2      336      357      353      358      435      466      352
  grid # 3       48       17        9        6       26        8        7
  grid # 4    48124    48124    48124    48124    47716    38542    48124
   
  number of gridpoints: 
     atom       C15      C16      C17      C18      C19      C20     Si21
  grid # 1       98      101       96       93       97      102      470
  grid # 2      358      361      332      331      336      359      470
  grid # 3       23       21       14       16       25       12        9
  grid # 4    48124    48124    48124    48124    48124    48124    38542
   
  number of gridpoints: 
     atom       O22      C23      C24      P25      O26      O27      C28
  grid # 1      112       94       93      438      117      113       99
  grid # 2      442      335      334      438      441      427      357
  grid # 3       61       22       26        7       53       23        9
  grid # 4    47716    48124    48124    38640    47716    47716    48124
   
  number of gridpoints: 
     atom       C29      C30      C31      C32      C33      C34      C35
  grid # 1      100      100      101      100      100       92       95
  grid # 2      359      356      355      359      361      333      335
  grid # 3       12        6        8       16       15       13       20
  grid # 4    48124    48124    48124    48124    48124    48124    48124
   
  number of gridpoints: 
     atom       C36      C37      C38      C39      C40      C41      C42
  grid # 1       92       94       92       94       92       96       93
  grid # 2      338      335      332      331      331      335      338
  grid # 3       29       21       16        9        8       19       39
  grid # 4    48124    48124    48124    48124    48124    48124    48124
   
  number of gridpoints: 
     atom       C43      C44      C45      C46      C47      C48      C49
  grid # 1       95       93       94       93       93       93       94
  grid # 2      333      337      332      333      331      334      335
  grid # 3       20       38       20       24       27       27       45
  grid # 4    48124    48124    48124    48124    48124    48124    48124
   
  number of gridpoints: 
     atom       C50      C51      C52      C53      C54      C55      C56
  grid # 1       94       93       93       93       92       92       93
  grid # 2      335      335      330      331      331      332      333
  grid # 3       47       37       22       23       17       20       27
  grid # 4    48124    48124    48124    48124    48124    48124    48124
   
  number of gridpoints: 
     atom       C57      C58      C59      C60      C61      C62      C63
  grid # 1       93       94       94       93       94       94       94
  grid # 2      332      336      336      336      336      337      336
  grid # 3       25       46       46       37       44       43       39
  grid # 4    48124    48124    48124    48124    48124    48124    48124
   
  number of gridpoints: 
     atom       C64      C65      C66      C67      C68      C69      C70
  grid # 1       96       95      100       95       95       95       91
  grid # 2      331      332      360      329      330      333      319
  grid # 3       31       22       16       11       15       28        6
  grid # 4    48124    48124    48124    48124    48124    48124    48124
   
  number of gridpoints: 
     atom       N71      S72      O73      O74      C75      C76      C77
  grid # 1      100      436      122      119       98       95       96
  grid # 2      353      436      506      471      354      325      328
  grid # 3       14       10      286      122       31       24       29
  grid # 4    47928    48492    47716    47716    48124    48124    48124
   
  number of gridpoints: 
     atom       C78      C79      N80      N81      C82      C83      C84
  grid # 1       96       96      111       98       94       93       93
  grid # 2      331      336      415      345      328      329      329
  grid # 3       35       30       82       13       10       18       17
  grid # 4    48124    48124    47928    47928    48124    48124    48124
   
  number of gridpoints: 
     atom       C85      H86      H87      H88      H89      H90      H91
  grid # 1       92      112      118      118      109      118      113
  grid # 2      319      434      451      446      425      453      432
  grid # 3        7      235      419      360      174      425      213
  grid # 4    48124    48426    48426    48426    48426    48426    48426
   
  number of gridpoints: 
     atom       H92      H93      H94      H95      H96      H97      H98
  grid # 1      113      117      117      117       96      110      112
  grid # 2      427      442      448      449      381      431      431
  grid # 3      192      346      400      407       31      188      247
  grid # 4    48426    48426    48426    48426    48426    48426    48426
   
  number of gridpoints: 
     atom       H99     H100     H101     H102     H103     H104     H105
  grid # 1      111      112      107      113      112      110      112
  grid # 2      435      434      417      435      433      416      433
  grid # 3      238      250      123      241      230      140      234
  grid # 4    48426    48426    48426    48426    48426    48426    48426
   
  number of gridpoints: 
     atom      H106     H107     H108     H109     H110     H111     H112
  grid # 1      110      112      104      116      117      117      118
  grid # 2      425      430      404      448      446      451      453
  grid # 3      197      221       46      322      359      387      420
  grid # 4    48426    48426    48426    48426    48426    48426    48426
   
  number of gridpoints: 
     atom      H113     H114     H115     H116     H117     H118     H119
  grid # 1      118      118      114      117      117      117      117
  grid # 2      453      452      439      451      449      445      450
  grid # 3      424      420      276      388      380      348      369
  grid # 4    48426    48426    48426    48426    48426    48426    48426
   
  number of gridpoints: 
     atom      H120     H121     H122     H123     H124     H125     H126
  grid # 1      112      118      118      118      118      118      116
  grid # 2      431      453      453      452      452      451      444
  grid # 3      212      419      424      417      416      411      297
  grid # 4    48426    48426    48426    48426    48426    48426    48426
   
  number of gridpoints: 
     atom      H127     H128     H129     H130     H131     H132     H133
  grid # 1      117      112      103      110      117      106      104
  grid # 2      450      432      401      422      449      418      410
  grid # 3      407      265       56      181      403      152       63
  grid # 4    48426    48426    48426    48426    48426    48426    48426
   
  number of gridpoints: 
     atom      H134     H135     H136     H137     H138     H139     H140
  grid # 1      109      111      117      100      113      116      115
  grid # 2      427      433      452      394      438      459      452
  grid # 3      167      224      399       65      240      407      354
  grid # 4    48426    48426    48426    48426    48426    48426    48426
   
  number of gridpoints: 
     atom      H141    total
  grid # 1      103    16013
  grid # 2      408    54485
  grid # 3       66    18135
  grid # 4    48426  6771080
   
  Peak memory usage:    793 Mb
  
  end of program grid
   
 Time(grid)  user:     1131.5  user+sys:     1131.5  wallclock:     1203.5
  
  start of program rwr
  
  Peak memory usage:    802 Mb
  
  end of program rwr
   
 Time(rwr)  user:       67.1  user+sys:       67.1  wallclock:       76.8
  
  start of program scf
  
 number of electrons..........        616
 number of alpha electrons....        308
 number of beta electrons.....        308
 number of orbitals, total....       1564
 number of doubly-occ'd orbs..        308
 number of open shell orbs....          0
 number of occupied orbitals..        308
 number of virtual orbitals...       1256
 number of hamiltonians.......          1
 number of shells.............          1
 SCF type: DFT=M06-2X
 Energy computed with NOPS off.
  
       i  u  d  i  g                   
       t  p  i  c  r                                 RMS    maximum
       e  d  i  u  i                       energy  density   DIIS  
       r  t  s  t  d       total energy    change  change    error 
  
etot    1  N  N  1  U   -4700.08124264324           2.1E-03  1.5E-01
etot    2  N  Y  1  U   -4707.66041042902  7.6E+00  1.7E-03  7.4E-02
etot    3  N  Y  1  U   -4708.33430021212  6.7E-01  9.8E-04  9.5E-02
etot    4  N  Y  1  U   -4709.92838014882  1.6E+00  4.2E-04  1.2E-02
etot    5  N  Y  1  U   -4709.98839575049  6.0E-02  2.1E-04  1.2E-02
etot    6  N  Y  1  U   -4710.05617461256  6.8E-02  4.9E-05  2.1E-03
etot    7  N  Y  1  U   -4710.05853169799  2.4E-03  1.6E-05  7.0E-04
etot    8  N  Y  1  U   -4710.05888955073  3.6E-04  6.3E-06  2.0E-04
etot    9  N  N  1  U   -4710.05893684994  4.7E-05  0.0E+00  0.0E+00
  
  
 Energy components, in hartrees:
   (A)  Nuclear repulsion............   17668.79687954855
   (E)  Total one-electron terms.....  -41674.03896354466
   (F)    Electron-nuclear...........  -46349.90332002393
   (H)    Kinetic....................    4675.86435647928
   (I)  Total two-electron terms.....   19295.18314714617
   (J)    Coulomb....................   19868.67881541710
   (K)    Exchange+Correlation.......    -573.49566827093
   (L)  Electronic energy............  -22378.85581639849  (E+I)
   (M)  -V/T.........................       2.00731299665  (-(A+F+I)/H)
   (N)  Total energy.................   -4710.05893684994  (A+L)
   (O)  Gas phase energy.............   -4710.05893684994
  
 SCFE: SCF energy: DFT(m06-2x)     -4710.05893684994 hartrees   iterations:   9
  
 
 HOMO energy:    -0.25722
 LUMO energy:    -0.05451
 
  Orbital energies (hartrees): 
   -90.15292   -78.19168   -67.00960   -67.00636   -19.68258   -19.68142
   -19.63472   -19.63372   -19.59916   -19.59587   -14.80820   -14.79076
   -14.77699   -10.65240   -10.62440   -10.62273   -10.61381   -10.60613
   -10.59237   -10.59104   -10.57373   -10.57311   -10.57229   -10.57128
   -10.56988   -10.56931   -10.56916   -10.56912   -10.56824   -10.56711
   -10.56547   -10.56374   -10.56209   -10.56180   -10.56168   -10.56106
   -10.56076   -10.56027   -10.55989   -10.55919   -10.55863   -10.55859
   -10.55783   -10.55458   -10.55423   -10.55325   -10.55253   -10.55145
   -10.55100   -10.55062   -10.55061   -10.55036   -10.54991   -10.54979
   -10.54970   -10.54896   -10.54866   -10.54854   -10.54846   -10.54799
   -10.54797   -10.54765   -10.54664   -10.54661   -10.54624   -10.54608
   -10.54434   -10.54432   -10.54422   -10.54284   -10.54171   -10.53976
   -10.53958   -10.53897   -10.53872   -10.53777   -10.53760   -10.53527
   -10.53486   -10.53356   -10.53294   -10.53107   -10.52976   -10.52551
   -10.52543    -8.46473    -6.97175    -6.38681    -6.38591    -6.38527
    -5.54090    -5.53752    -5.09029    -5.08911    -5.08784    -3.85075
    -3.85035    -3.85013    -3.84734    -3.84696    -3.84683    -1.23719
    -1.22512    -1.17775    -1.11952    -1.10972    -1.09985    -1.07249
    -1.06399    -1.04768    -0.98435    -0.97158    -0.96969    -0.94637
    -0.94319    -0.94257    -0.93989    -0.93462    -0.93137    -0.92394
    -0.91375    -0.91155    -0.89388    -0.89258    -0.88837    -0.87116
    -0.85639    -0.85208    -0.84446    -0.84267    -0.83756    -0.83621
    -0.83543    -0.83450    -0.83365    -0.83200    -0.83047    -0.82733
    -0.82677    -0.82667    -0.82511    -0.82233    -0.82133    -0.81773
    -0.80341    -0.79490    -0.74618    -0.73916    -0.72505    -0.71264
    -0.70848    -0.70476    -0.69928    -0.69105    -0.68664    -0.68252
    -0.68027    -0.67836    -0.67789    -0.67695    -0.67435    -0.67273
    -0.67076    -0.66717    -0.66464    -0.66381    -0.66214    -0.66010
    -0.65985    -0.65868    -0.65375    -0.64950    -0.64064    -0.63838
    -0.62477    -0.60899    -0.60746    -0.60242    -0.60144    -0.59103
    -0.58391    -0.58226    -0.58076    -0.57859    -0.57598    -0.57477
    -0.57075    -0.56552    -0.56207    -0.55855    -0.54904    -0.54622
    -0.54443    -0.54205    -0.53821    -0.53562    -0.53134    -0.52739
    -0.52494    -0.52300    -0.51930    -0.51809    -0.51616    -0.51510
    -0.51320    -0.51189    -0.50893    -0.50801    -0.50600    -0.50311
    -0.50202    -0.50071    -0.50010    -0.49972    -0.49770    -0.49694
    -0.49564    -0.49459    -0.49312    -0.49096    -0.48938    -0.48798
    -0.48522    -0.48373    -0.48312    -0.48296    -0.48238    -0.47897
    -0.47753    -0.47321    -0.47185    -0.47068    -0.46768    -0.46677
    -0.46371    -0.45863    -0.45353    -0.45294    -0.44987    -0.44941
    -0.44808    -0.44248    -0.44077    -0.43910    -0.43426    -0.43128
    -0.42960    -0.42654    -0.42414    -0.42322    -0.42275    -0.42165
    -0.41747    -0.41573    -0.41439    -0.41091    -0.40909    -0.40491
    -0.40208    -0.40185    -0.39596    -0.39277    -0.39258    -0.39248
    -0.39200    -0.38969    -0.38798    -0.38757    -0.38467    -0.38250
    -0.38125    -0.37843    -0.37460    -0.37382    -0.36925    -0.35852
    -0.35501    -0.35440    -0.34885    -0.34666    -0.34342    -0.34208
    -0.34013    -0.33897    -0.33646    -0.33344    -0.33194    -0.32815
    -0.31875    -0.31048    -0.30691    -0.30639    -0.30326    -0.30108
    -0.29989    -0.29938    -0.29777    -0.29353    -0.29284    -0.29072
    -0.29033    -0.28870    -0.28637    -0.28476    -0.28262    -0.27632
    -0.27493    -0.25722    -0.05451    -0.02473    -0.00607    -0.00203
     0.00841     0.01334     0.01790     0.01988     0.02198     0.02235
 
  Peak memory usage:   1020 Mb
  
  end of program scf
   
 Time(scf)  user:    21942.3  user+sys:    21942.3  wallclock:    23276.5
  
  start of program ch
  
  gridpoints used for charge fit        15621
    out of a possible maximum of        18135
  
   Electrostatic potential fitting constrained to reproduce
     total charge:                yes
     dipole moment:               no 
     traceless quadrupole moment: no 
     traceless octapole moment:   no 
  
  Atomic charges from electrostatic potential: 
   
 Atom       C1           C2           C3           C4           C5      
 Charge   -0.12536      0.05254     -0.16602      0.12652     -0.03691
   
 Atom       C6           C7           C8           C9           C10     
 Charge   -0.19723     -0.29124     -0.12059      0.03206     -0.13699
   
 Atom       C11          O12          Si13         C14          C15     
 Charge    0.12763     -0.19716     -0.22808      0.19048      0.18400
   
 Atom       C16          C17          C18          C19          C20     
 Charge    0.23374     -0.24319     -0.47405     -0.26127      0.01577
   
 Atom       Si21         O22          C23          C24          P25     
 Charge    0.15448     -0.22640     -0.13270     -0.11122      0.81713
   
 Atom       O26          O27          C28          C29          C30     
 Charge   -0.55383     -0.63498      0.06671      0.15756      0.19050
   
 Atom       C31          C32          C33          C34          C35     
 Charge    0.13659     -0.06340     -0.06778     -0.00344     -0.16995
   
 Atom       C36          C37          C38          C39          C40     
 Charge   -0.15604     -0.16221     -0.15304     -0.13602     -0.07259
   
 Atom       C41          C42          C43          C44          C45     
 Charge   -0.31302     -0.05152     -0.11597     -0.07114     -0.01579
   
 Atom       C46          C47          C48          C49          C50     
 Charge   -0.21094     -0.09282     -0.15637     -0.15018     -0.13309
   
 Atom       C51          C52          C53          C54          C55     
 Charge   -0.13207     -0.13392     -0.12847     -0.15764     -0.15719
   
 Atom       C56          C57          C58          C59          C60     
 Charge   -0.19091      0.01755     -0.17042     -0.11161     -0.13884
   
 Atom       C61          C62          C63          C64          C65     
 Charge   -0.17762     -0.11721     -0.14178     -0.15780     -0.13605
   
 Atom       C66          C67          C68          C69          C70     
 Charge    0.05527      0.09870     -0.15276     -0.13890     -0.03557
   
 Atom       N71          S72          O73          O74          C75     
 Charge   -0.43701      0.70535     -0.42175     -0.47997      0.57662
   
 Atom       C76          C77          C78          C79          N80     
 Charge   -0.41483      0.23700     -0.43207      0.38740     -0.61026
   
 Atom       N81          C82          C83          C84          C85     
 Charge    0.00490      0.03323     -0.29465     -0.11880     -0.13500
   
 Atom       H86          H87          H88          H89          H90     
 Charge    0.11523      0.14548      0.13996      0.15279      0.13403
   
 Atom       H91          H92          H93          H94          H95     
 Charge    0.14716      0.22122      0.15930      0.14075      0.13078
   
 Atom       H96          H97          H98          H99          H100    
 Charge    0.47441      0.09594      0.14224      0.11371      0.12537
   
 Atom       H101         H102         H103         H104         H105    
 Charge    0.08942      0.11104      0.08038      0.16488      0.07949
   
 Atom       H106         H107         H108         H109         H110    
 Charge    0.13121      0.09385      0.01178      0.14544      0.11725
   
 Atom       H111         H112         H113         H114         H115    
 Charge    0.12827      0.13640      0.13143      0.13047      0.13751
   
 Atom       H116         H117         H118         H119         H120    
 Charge    0.14137      0.13382      0.12669      0.14597      0.07865
   
 Atom       H121         H122         H123         H124         H125    
 Charge    0.13828      0.12596      0.12430      0.13641      0.12500
   
 Atom       H126         H127         H128         H129         H130    
 Charge    0.11925      0.14326      0.12534      0.03136      0.12380
   
 Atom       H131         H132         H133         H134         H135    
 Charge    0.14184      0.19156      0.10419      0.07378      0.15374
   
 Atom       H136         H137         H138         H139         H140    
 Charge    0.05987      0.20837      0.13299      0.18259      0.15740
   
 Atom       H141    
 Charge    0.20093
  
  sum of atomic charges:     0.000000
   
 RMS Error   9.27E-04 hartrees
 
  Peak memory usage:    810 Mb
  
  end of program ch
   
 Time(ch)  user:       16.8  user+sys:       16.8  wallclock:       18.9
  
  start of program post
  
  Writing input files for PBF
  Peak memory usage:    758 Mb
  
  end of program post
   
 Time(post)  user:        0.8  user+sys:        0.8  wallclock:        1.0

  start of program pbf

Pbf Version 4.10

Molecular surface area:      779.00772   [A2]
Reaction field energy:       -16.08301   [kT]
  Peak memory usage: 718 Mb

  end of program pbf

 Time(pbf)  user:        8.6  user+sys:        8.7  wallclock:        8.9
  
  start of program solv
  
   number of surface charges from PBF   12942
   sum of surface charges     -0.00031
   
  nuclear repulsion energy.......   17668.796879549 hartrees
  Peak memory usage:    887 Mb
  
  end of program solv
   
 Time(solv)  user:       33.7  user+sys:       33.7  wallclock:       34.7
  
  start of program scf
  
 Energy computed with NOPS off.
  
       i  u  d  i  g                   
       t  p  i  c  r                                 RMS    maximum
       e  d  i  u  i                       energy  density   DIIS  
       r  t  s  t  d       total energy    change  change    error 
  
etot    1  N  N  1  U   -4710.09295827856           5.7E-05  1.0E-03
etot    2  N  Y  1  U   -4710.09369894940  7.4E-04  1.8E-05  8.3E-04
etot    3  N  Y  1  U   -4710.09395560283  2.6E-04  6.1E-06  3.3E-04
etot    4  N  Y  1  U   -4710.09400829099  5.3E-05  2.6E-06  1.0E-04
etot    5  N  N  1  U   -4710.09401449486  6.2E-06  0.0E+00  0.0E+00
  
  
 Energy components, in hartrees:
   (A)  Total zero-electron terms....   17670.79490316069
   (B)    Nuclear-nuclear............   17668.79687954855
   (C)    Nuclear-solvent............       1.99802361215
   (E)  Total one-electron terms.....  -41677.33270048310
   (F)    Electron-nuclear...........  -46351.22933304329
   (G)    Electron-solvent...........      -2.03413913191
   (H)    Kinetic....................    4675.93077169210
   (I)  Total two-electron terms.....   19296.44378282754
   (J)    Coulomb....................   19869.96156123172
   (K)    Exchange+Correlation.......    -573.51777840418
   (L)  Electronic energy............  -22380.88891765556  (E+I)
   (N)  Total quantum mech. energy...   -4710.09401449486  (A+L)
   (O)  Gas phase energy.............   -4710.05893684994
   (P)  Solution phase energy........   -4710.07595673498  (Q+R+S)
   (Q)    Total solute energy........   -4710.05789897510  (N-C-G)
   (R)    Total solvent energy.......      -0.01805775988  (C/2+G/2)
   (S)    Solute cavity energy.......       0.00000000000
   (U)  Reorganization energy........       0.00103787484  (Q-O)
   (V)  Solvation energy.............      -0.01701988504  (P-O)
  
 SCFE:  Solution phase energy: DFT(m06-2x)      -4710.07595673498 hartrees
        SCF iterations:   5
  
 
 HOMO energy:    -0.25779
 LUMO energy:    -0.05384
 
  Orbital energies (hartrees): 
   -90.16107   -78.19264   -67.01010   -67.00819   -19.68289   -19.68162
   -19.64306   -19.64143   -19.60067   -19.59634   -14.80655   -14.79441
   -14.78170   -10.65241   -10.62494   -10.62334   -10.61897   -10.60400
   -10.59524   -10.58997   -10.57548   -10.57370   -10.57362   -10.57270
   -10.57243   -10.57002   -10.56977   -10.56942   -10.56642   -10.56639
   -10.56576   -10.56343   -10.56145   -10.56106   -10.56082   -10.56068
   -10.55970   -10.55898   -10.55864   -10.55846   -10.55677   -10.55641
   -10.55558   -10.55491   -10.55488   -10.55345   -10.55250   -10.55241
   -10.55192   -10.55161   -10.55152   -10.55129   -10.55114   -10.55079
   -10.55074   -10.55054   -10.54965   -10.54954   -10.54914   -10.54871
   -10.54826   -10.54793   -10.54745   -10.54742   -10.54674   -10.54664
   -10.54568   -10.54512   -10.54512   -10.54409   -10.54356   -10.54152
   -10.54146   -10.54109   -10.54050   -10.54031   -10.53994   -10.53841
   -10.53630   -10.53533   -10.53512   -10.53481   -10.52963   -10.52818
   -10.52799    -8.47280    -6.97271    -6.39481    -6.39408    -6.39335
    -5.54145    -5.53939    -5.09125    -5.09007    -5.08880    -3.85130
    -3.85090    -3.85067    -3.84920    -3.84883    -3.84871    -1.24567
    -1.22591    -1.17845    -1.12853    -1.10968    -1.09955    -1.07708
    -1.06577    -1.04987    -0.98506    -0.97045    -0.97001    -0.94757
    -0.94528    -0.94389    -0.94008    -0.93731    -0.93442    -0.92427
    -0.91513    -0.91414    -0.89539    -0.89317    -0.88761    -0.87148
    -0.85672    -0.85007    -0.84527    -0.84410    -0.83833    -0.83718
    -0.83712    -0.83444    -0.83324    -0.83209    -0.83127    -0.82910
    -0.82824    -0.82757    -0.82539    -0.82530    -0.82370    -0.82042
    -0.80375    -0.79714    -0.74775    -0.73987    -0.72844    -0.71347
    -0.70878    -0.70474    -0.70000    -0.69163    -0.68779    -0.68204
    -0.68079    -0.67899    -0.67835    -0.67694    -0.67499    -0.67355
    -0.67079    -0.66925    -0.66534    -0.66415    -0.66195    -0.66131
    -0.66016    -0.65949    -0.65621    -0.64986    -0.64134    -0.63906
    -0.62512    -0.60969    -0.60773    -0.60353    -0.60160    -0.59611
    -0.58417    -0.58260    -0.58112    -0.57856    -0.57655    -0.57541
    -0.57286    -0.57000    -0.56229    -0.56182    -0.54962    -0.54734
    -0.54482    -0.54282    -0.53913    -0.53810    -0.53172    -0.52813
    -0.52645    -0.52349    -0.51982    -0.51877    -0.51631    -0.51541
    -0.51375    -0.51224    -0.51070    -0.50857    -0.50576    -0.50356
    -0.50260    -0.50100    -0.50092    -0.49915    -0.49814    -0.49753
    -0.49526    -0.49487    -0.49445    -0.49224    -0.49195    -0.48912
    -0.48552    -0.48512    -0.48369    -0.48347    -0.48310    -0.48081
    -0.47868    -0.47446    -0.47263    -0.47076    -0.46931    -0.46470
    -0.46399    -0.45968    -0.45455    -0.45373    -0.45130    -0.45061
    -0.44885    -0.44425    -0.44176    -0.43916    -0.43497    -0.43233
    -0.43136    -0.42769    -0.42605    -0.42476    -0.42328    -0.42232
    -0.41898    -0.41750    -0.41645    -0.41342    -0.40986    -0.40475
    -0.40295    -0.40206    -0.39645    -0.39552    -0.39438    -0.39330
    -0.39300    -0.39283    -0.39043    -0.38816    -0.38786    -0.38429
    -0.38268    -0.38066    -0.37919    -0.37580    -0.37467    -0.35955
    -0.35645    -0.35578    -0.35058    -0.34856    -0.34462    -0.34302
    -0.34161    -0.34041    -0.33917    -0.33689    -0.33203    -0.32922
    -0.32207    -0.31025    -0.30795    -0.30571    -0.30486    -0.30322
    -0.30216    -0.30103    -0.29931    -0.29580    -0.29401    -0.29264
    -0.29131    -0.29049    -0.28828    -0.28718    -0.28521    -0.27690
    -0.27583    -0.25779    -0.05384    -0.02531    -0.01023    -0.00312
     0.00686     0.01096     0.01675     0.01813     0.02081     0.02131
 
  Peak memory usage:   1020 Mb
  
  end of program scf
   
 Time(scf)  user:     9673.2  user+sys:     9673.2  wallclock:    10336.5
  
  start of program sole
  
    SCRF                   solvation energy
  iteration          Hartrees            kcal/mol
     0               0.0000000            0.0000
     1              -0.0170199          -10.6801
  
  solvation energy not yet converged... 
  
  Peak memory usage:    812 Mb
  
  end of program sole
   
 Time(sole)  user:        0.1  user+sys:        0.1  wallclock:        0.2
  
  start of program ch
  
  gridpoints used for charge fit        15621
    out of a possible maximum of        15621
  
   Electrostatic potential fitting constrained to reproduce
     total charge:                yes
     dipole moment:               no 
     traceless quadrupole moment: no 
     traceless octapole moment:   no 
  
  Atomic charges from electrostatic potential: 
   
 Atom       C1           C2           C3           C4           C5      
 Charge   -0.12234      0.04982     -0.17665      0.13124     -0.03779
   
 Atom       C6           C7           C8           C9           C10     
 Charge   -0.20789     -0.30879     -0.12554      0.01942     -0.13857
   
 Atom       C11          O12          Si13         C14          C15     
 Charge    0.14937     -0.18527     -0.25378      0.19455      0.17027
   
 Atom       C16          C17          C18          C19          C20     
 Charge    0.24205     -0.24857     -0.49315     -0.27103      0.03462
   
 Atom       Si21         O22          C23          C24          P25     
 Charge    0.14448     -0.20847     -0.13849     -0.11666      0.78497
   
 Atom       O26          O27          C28          C29          C30     
 Charge   -0.54432     -0.62315      0.07664      0.16157      0.20450
   
 Atom       C31          C32          C33          C34          C35     
 Charge    0.14262     -0.07262     -0.07478     -0.00604     -0.17983
   
 Atom       C36          C37          C38          C39          C40     
 Charge   -0.15948     -0.16663     -0.16334     -0.14064     -0.06889
   
 Atom       C41          C42          C43          C44          C45     
 Charge   -0.32204     -0.04841     -0.11598     -0.07436     -0.01421
   
 Atom       C46          C47          C48          C49          C50     
 Charge   -0.22084     -0.10001     -0.16157     -0.15939     -0.13995
   
 Atom       C51          C52          C53          C54          C55     
 Charge   -0.13842     -0.13809     -0.13545     -0.16256     -0.16269
   
 Atom       C56          C57          C58          C59          C60     
 Charge   -0.19990      0.00902     -0.18276     -0.11557     -0.14684
   
 Atom       C61          C62          C63          C64          C65     
 Charge   -0.18573     -0.12337     -0.14865     -0.16059     -0.14661
   
 Atom       C66          C67          C68          C69          C70     
 Charge    0.07407      0.08517     -0.14845     -0.14500     -0.07147
   
 Atom       N71          S72          O73          O74          C75     
 Charge   -0.40667      0.71411     -0.45100     -0.49292      0.58728
   
 Atom       C76          C77          C78          C79          N80     
 Charge   -0.41414      0.23890     -0.43627      0.39550     -0.64011
   
 Atom       N81          C82          C83          C84          C85     
 Charge    0.01406      0.03852     -0.29712     -0.12456     -0.14473
   
 Atom       H86          H87          H88          H89          H90     
 Charge    0.11596      0.15452      0.14742      0.15908      0.14244
   
 Atom       H91          H92          H93          H94          H95     
 Charge    0.15099      0.22980      0.16755      0.14900      0.13916
   
 Atom       H96          H97          H98          H99          H100    
 Charge    0.46194      0.09694      0.14723      0.11467      0.12911
   
 Atom       H101         H102         H103         H104         H105    
 Charge    0.09406      0.11444      0.08204      0.16914      0.07799
   
 Atom       H106         H107         H108         H109         H110    
 Charge    0.13705      0.09677      0.01221      0.15263      0.12593
   
 Atom       H111         H112         H113         H114         H115    
 Charge    0.13448      0.14449      0.13936      0.13826      0.14020
   
 Atom       H116         H117         H118         H119         H120    
 Charge    0.14714      0.14083      0.13342      0.15270      0.07943
   
 Atom       H121         H122         H123         H124         H125    
 Charge    0.14696      0.13358      0.13218      0.14385      0.13239
   
 Atom       H126         H127         H128         H129         H130    
 Charge    0.12463      0.15045      0.13493      0.03552      0.12332
   
 Atom       H131         H132         H133         H134         H135    
 Charge    0.14904      0.20607      0.10301      0.07716      0.16022
   
 Atom       H136         H137         H138         H139         H140    
 Charge    0.06805      0.20297      0.13752      0.19042      0.16773
   
 Atom       H141    
 Charge    0.20799
  
  sum of atomic charges:    -0.000000
   
 RMS Error   9.39E-04 hartrees
 
  Peak memory usage:    811 Mb
  
  end of program ch
   
 Time(ch)  user:       17.1  user+sys:       17.1  wallclock:       20.0
  
  start of program post
  
  Writing input files for PBF
  Peak memory usage:    758 Mb
  
  end of program post
   
 Time(post)  user:        0.8  user+sys:        0.8  wallclock:        1.0

  start of program pbf

Pbf Version 4.10

Molecular surface area:      779.00772   [A2]
Reaction field energy:       -18.54082   [kT]
  Peak memory usage: 718 Mb

  end of program pbf

 Time(pbf)  user:        8.7  user+sys:        8.7  wallclock:        9.1
  
  start of program solv
  
   number of surface charges from PBF   12942
   sum of surface charges     -0.00032
   
  nuclear repulsion energy.......   17668.796879549 hartrees
  Peak memory usage:    887 Mb
  
  end of program solv
   
 Time(solv)  user:       33.7  user+sys:       33.7  wallclock:       34.6
  
  start of program scf
  
 Energy computed with NOPS off.
  
       i  u  d  i  g                   
       t  p  i  c  r                                 RMS    maximum
       e  d  i  u  i                       energy  density   DIIS  
       r  t  s  t  d       total energy    change  change    error 
  
etot    1  N  N  1  U   -4710.09662830236           7.1E-06  1.3E-04
etot    2  N  N  1  U   -4710.09662997621  1.7E-06  0.0E+00  0.0E+00
  
  
 Energy components, in hartrees:
   (A)  Total zero-electron terms....   17671.01494363815
   (B)    Nuclear-nuclear............   17668.79687954855
   (C)    Nuclear-solvent............       2.21806408960
   (E)  Total one-electron terms.....  -41677.84738622996
   (F)    Electron-nuclear...........  -46351.52968645157
   (G)    Electron-solvent...........      -2.25711995435
   (H)    Kinetic....................    4675.93942017596
   (I)  Total two-electron terms.....   19296.73581261559
   (J)    Coulomb....................   19870.25543793231
   (K)    Exchange+Correlation.......    -573.51962531672
   (L)  Electronic energy............  -22381.11157361437  (E+I)
   (N)  Total quantum mech. energy...   -4710.09662997621  (A+L)
   (O)  Gas phase energy.............   -4710.05893684994
   (P)  Solution phase energy........   -4710.07710204384  (Q+R+S)
   (Q)    Total solute energy........   -4710.05757411147  (N-C-G)
   (R)    Total solvent energy.......      -0.01952793237  (C/2+G/2)
   (S)    Solute cavity energy.......       0.00000000000
   (U)  Reorganization energy........       0.00136273847  (Q-O)
   (V)  Solvation energy.............      -0.01816519390  (P-O)
  
 SCFE:  Solution phase energy: DFT(m06-2x)      -4710.07710204384 hartrees
        SCF iterations:   2
  
 
 HOMO energy:    -0.27173
 LUMO energy:    -0.05325
 
  Orbital energies (hartrees): 
   -62.75109   -57.79878   -52.11082   -39.22069   -28.31141   -27.45359
   -25.05497   -21.58686   -20.05755   -19.12209   -19.11216   -19.07954
   -17.75563   -15.97774   -15.82782   -14.69081   -12.67541   -12.44106
   -12.08127   -11.98069   -11.97358   -11.87250   -11.87097   -11.64517
   -11.63680   -11.38864   -11.30896   -11.30307   -11.18597   -11.18097
   -11.15840   -11.11637   -11.05603   -10.91065   -10.88421   -10.88316
   -10.88074   -10.75687   -10.74246   -10.65419   -10.64051   -10.60739
   -10.58624   -10.57129   -10.57116   -10.54492   -10.51205   -10.50664
   -10.47495   -10.47414   -10.46992   -10.46882   -10.46301   -10.42718
   -10.42101   -10.38715   -10.38514   -10.37834   -10.36257   -10.34251
   -10.33391   -10.30361   -10.26659   -10.26529   -10.17822   -10.15810
   -10.11882   -10.05670   -10.05614   -10.02639    -9.99512    -9.98853
    -9.97499    -9.96604    -9.92037    -9.90210    -9.89832    -9.89176
    -9.89077    -9.74984    -9.44273    -9.42963    -9.21258    -9.14426
    -8.96953    -8.87894    -8.87391    -8.82485    -8.80381    -8.78886
    -8.77167    -8.65032    -8.46512    -8.11169    -7.68495    -6.74812
    -6.71126    -6.51844    -6.24144    -5.18406    -4.09289    -1.18432
    -1.14795    -1.08837    -1.07686    -1.01580    -0.97512    -0.96168
    -0.94281    -0.93113    -0.90972    -0.90533    -0.89733    -0.89350
    -0.89222    -0.88864    -0.88538    -0.87812    -0.87228    -0.87202
    -0.85372    -0.84811    -0.84677    -0.84333    -0.84209    -0.83519
    -0.83485    -0.82990    -0.81112    -0.81002    -0.80981    -0.80614
    -0.80512    -0.79902    -0.79681    -0.79437    -0.79273    -0.79224
    -0.78186    -0.76733    -0.76425    -0.76179    -0.76136    -0.75473
    -0.75331    -0.75306    -0.74989    -0.74918    -0.74167    -0.73745
    -0.71896    -0.71029    -0.70993    -0.69520    -0.68977    -0.68933
    -0.68083    -0.67949    -0.67656    -0.67268    -0.66542    -0.66413
    -0.66275    -0.66092    -0.65781    -0.65509    -0.65245    -0.64387
    -0.64306    -0.63457    -0.63234    -0.62998    -0.62552    -0.62464
    -0.61993    -0.61475    -0.60508    -0.59873    -0.59858    -0.59714
    -0.59397    -0.59395    -0.57768    -0.57583    -0.57499    -0.57470
    -0.57030    -0.56784    -0.56521    -0.56483    -0.56340    -0.56301
    -0.56272    -0.55897    -0.55731    -0.55507    -0.55185    -0.55094
    -0.54998    -0.54890    -0.54858    -0.54575    -0.54567    -0.54505
    -0.54422    -0.54264    -0.54262    -0.53745    -0.53414    -0.53401
    -0.53292    -0.53240    -0.53004    -0.52817    -0.52759    -0.52414
    -0.52312    -0.52247    -0.52096    -0.51060    -0.51007    -0.50898
    -0.50893    -0.50661    -0.50592    -0.50322    -0.49983    -0.49709
    -0.49674    -0.49422    -0.49071    -0.48993    -0.48894    -0.48690
    -0.48688    -0.48537    -0.48260    -0.48248    -0.48179    -0.48024
    -0.47580    -0.47502    -0.47491    -0.47474    -0.47429    -0.47293
    -0.47272    -0.47002    -0.46991    -0.46574    -0.46557    -0.46550
    -0.46430    -0.46058    -0.46042    -0.45921    -0.45548    -0.45035
    -0.44915    -0.44913    -0.44727    -0.44513    -0.44367    -0.44101
    -0.44021    -0.44017    -0.43859    -0.43753    -0.43144    -0.43016
    -0.42636    -0.42493    -0.42027    -0.41946    -0.41921    -0.41639
    -0.41120    -0.41000    -0.40510    -0.39862    -0.39606    -0.39588
    -0.39291    -0.39138    -0.39095    -0.37729    -0.37312    -0.37041
    -0.36126    -0.36094    -0.36034    -0.35904    -0.34213    -0.34175
    -0.33167    -0.33148    -0.32780    -0.32397    -0.32317    -0.31391
    -0.31340    -0.31272    -0.31130    -0.30603    -0.30522    -0.29676
    -0.29050    -0.27173    -0.05325    -0.02522    -0.01026    -0.00316
     0.00687     0.01093     0.01679     0.01822     0.02083     0.02141
 
  Peak memory usage:   1020 Mb
  
  end of program scf
   
 Time(scf)  user:     2427.8  user+sys:     2427.8  wallclock:     2594.7
  
  start of program sole
  
    SCRF                   solvation energy
  iteration          Hartrees            kcal/mol
     0               0.0000000            0.0000
     1              -0.0170199          -10.6801
     2              -0.0181652          -11.3988
  
  solvation energy not yet converged... 
  
  Peak memory usage:    812 Mb
  
  end of program sole
   
 Time(sole)  user:        0.2  user+sys:        0.2  wallclock:        0.1
  
  start of program ch
  
  gridpoints used for charge fit        15621
    out of a possible maximum of        15621
  
   Electrostatic potential fitting constrained to reproduce
     total charge:                yes
     dipole moment:               no 
     traceless quadrupole moment: no 
     traceless octapole moment:   no 
  
  Atomic charges from electrostatic potential: 
   
 Atom       C1           C2           C3           C4           C5      
 Charge   -0.12223      0.04984     -0.17686      0.13133     -0.03738
   
 Atom       C6           C7           C8           C9           C10     
 Charge   -0.20904     -0.31028     -0.12518      0.01801     -0.13823
   
 Atom       C11          O12          Si13         C14          C15     
 Charge    0.15063     -0.18368     -0.25632      0.19533      0.16845
   
 Atom       C16          C17          C18          C19          C20     
 Charge    0.24317     -0.24833     -0.49550     -0.27219      0.03522
   
 Atom       Si21         O22          C23          C24          P25     
 Charge    0.14371     -0.20628     -0.13846     -0.11556      0.78077
   
 Atom       O26          O27          C28          C29          C30     
 Charge   -0.54267     -0.62223      0.07681      0.16150      0.20590
   
 Atom       C31          C32          C33          C34          C35     
 Charge    0.14090     -0.07424     -0.07634     -0.00631     -0.18087
   
 Atom       C36          C37          C38          C39          C40     
 Charge   -0.15989     -0.16726     -0.16487     -0.14115     -0.06720
   
 Atom       C41          C42          C43          C44          C45     
 Charge   -0.32103     -0.04840     -0.11606     -0.07423     -0.01506
   
 Atom       C46          C47          C48          C49          C50     
 Charge   -0.22199     -0.09947     -0.16130     -0.15988     -0.13980
   
 Atom       C51          C52          C53          C54          C55     
 Charge   -0.13821     -0.13859     -0.13553     -0.16235     -0.16174
   
 Atom       C56          C57          C58          C59          C60     
 Charge   -0.20073      0.00602     -0.18390     -0.11459     -0.14672
   
 Atom       C61          C62          C63          C64          C65     
 Charge   -0.18595     -0.12283     -0.14856     -0.15886     -0.14688
   
 Atom       C66          C67          C68          C69          C70     
 Charge    0.07242      0.08329     -0.14733     -0.14412     -0.07512
   
 Atom       N71          S72          O73          O74          C75     
 Charge   -0.40485      0.71124     -0.45360     -0.49151      0.58542
   
 Atom       C76          C77          C78          C79          N80     
 Charge   -0.41282      0.24061     -0.43473      0.39580     -0.64433
   
 Atom       N81          C82          C83          C84          C85     
 Charge    0.01356      0.04183     -0.29484     -0.12410     -0.14694
   
 Atom       H86          H87          H88          H89          H90     
 Charge    0.11604      0.15513      0.14786      0.15949      0.14303
   
 Atom       H91          H92          H93          H94          H95     
 Charge    0.15105      0.23038      0.16810      0.14951      0.13965
   
 Atom       H96          H97          H98          H99          H100    
 Charge    0.46116      0.09684      0.14726      0.11445      0.12921
   
 Atom       H101         H102         H103         H104         H105    
 Charge    0.09481      0.11477      0.08206      0.16877      0.07760
   
 Atom       H106         H107         H108         H109         H110    
 Charge    0.13756      0.09671      0.01262      0.15333      0.12668
   
 Atom       H111         H112         H113         H114         H115    
 Charge    0.13496      0.14496      0.13991      0.13882      0.14022
   
 Atom       H116         H117         H118         H119         H120    
 Charge    0.14719      0.14138      0.13398      0.15310      0.07941
   
 Atom       H121         H122         H123         H124         H125    
 Charge    0.14750      0.13406      0.13285      0.14432      0.13285
   
 Atom       H126         H127         H128         H129         H130    
 Charge    0.12509      0.15084      0.13580      0.03538      0.12284
   
 Atom       H131         H132         H133         H134         H135    
 Charge    0.14932      0.20726      0.10266      0.07728      0.16089
   
 Atom       H136         H137         H138         H139         H140    
 Charge    0.06886      0.20227      0.13758      0.19090      0.16826
   
 Atom       H141    
 Charge    0.20895
  
  sum of atomic charges:    -0.000000
   
 RMS Error   9.39E-04 hartrees
 
  Peak memory usage:    811 Mb
  
  end of program ch
   
 Time(ch)  user:       16.1  user+sys:       16.1  wallclock:       26.5
  
  start of program post
  
  Writing input files for PBF
  Peak memory usage:    757 Mb
  
  end of program post
   
 Time(post)  user:        0.7  user+sys:        0.7  wallclock:        1.0

  start of program pbf

Pbf Version 4.10

Molecular surface area:      779.00772   [A2]
Reaction field energy:       -18.89447   [kT]
  Peak memory usage: 718 Mb

  end of program pbf

 Time(pbf)  user:        8.8  user+sys:        8.9  wallclock:        9.1
  
  start of program solv
  
   number of surface charges from PBF   12942
   sum of surface charges     -0.00032
   
  nuclear repulsion energy.......   17668.796879549 hartrees
  Peak memory usage:    887 Mb
  
  end of program solv
   
 Time(solv)  user:       34.1  user+sys:       34.1  wallclock:       35.0
  
  start of program scf
  
 Energy computed with NOPS off.
  
       i  u  d  i  g                   
       t  p  i  c  r                                 RMS    maximum
       e  d  i  u  i                       energy  density   DIIS  
       r  t  s  t  d       total energy    change  change    error 
  
etot    1  N  N  1  U   -4710.09697991156           6.4E-06  1.3E-04
etot    2  N  N  1  U   -4710.09696182367 -1.8E-05  0.0E+00  0.0E+00
  
  
 Energy components, in hartrees:
   (A)  Total zero-electron terms....   17671.05872465218
   (B)    Nuclear-nuclear............   17668.79687954855
   (C)    Nuclear-solvent............       2.26184510364
   (E)  Total one-electron terms.....  -41677.59151601554
   (F)    Electron-nuclear...........  -46351.21389820255
   (G)    Electron-solvent...........      -2.30111937925
   (H)    Kinetic....................    4675.92350156626
   (I)  Total two-electron terms.....   19296.43582953969
   (J)    Coulomb....................   19869.95385249893
   (K)    Exchange+Correlation.......    -573.51802295924
   (L)  Electronic energy............  -22381.15568647585  (E+I)
   (N)  Total quantum mech. energy...   -4710.09696182367  (A+L)
   (O)  Gas phase energy.............   -4710.05893684994
   (P)  Solution phase energy........   -4710.07732468586  (Q+R+S)
   (Q)    Total solute energy........   -4710.05768754806  (N-C-G)
   (R)    Total solvent energy.......      -0.01963713781  (C/2+G/2)
   (S)    Solute cavity energy.......       0.00000000000
   (U)  Reorganization energy........       0.00124930188  (Q-O)
   (V)  Solvation energy.............      -0.01838783593  (P-O)
  
 SCFE:  Solution phase energy: DFT(m06-2x)      -4710.07732468586 hartrees
        SCF iterations:   2
  
 
 HOMO energy:    -0.25783
 LUMO energy:    -0.05423
 
  Orbital energies (hartrees): 
   -90.16360   -78.19327   -67.01070   -67.00933   -19.68353   -19.68203
   -19.64647   -19.64100   -19.60234   -19.59636   -14.80735   -14.79785
   -14.78521   -10.65439   -10.62533   -10.62422   -10.62176   -10.60246
   -10.59606   -10.59062   -10.57504   -10.57437   -10.57356   -10.57301
   -10.57259   -10.56976   -10.56920   -10.56918   -10.56571   -10.56555
   -10.56552   -10.56372   -10.56225   -10.56187   -10.56149   -10.55940
   -10.55889   -10.55858   -10.55783   -10.55701   -10.55652   -10.55547
   -10.55502   -10.55468   -10.55371   -10.55313   -10.55261   -10.55241
   -10.55223   -10.55221   -10.55147   -10.55147   -10.55126   -10.55113
   -10.55110   -10.55099   -10.54962   -10.54957   -10.54956   -10.54884
   -10.54827   -10.54812   -10.54760   -10.54745   -10.54717   -10.54695
   -10.54573   -10.54567   -10.54525   -10.54392   -10.54334   -10.54211
   -10.54200   -10.54148   -10.54114   -10.54100   -10.54066   -10.54030
   -10.53751   -10.53698   -10.53631   -10.53557   -10.53043   -10.52954
   -10.52919    -8.47529    -6.97335    -6.39729    -6.39657    -6.39584
    -5.54205    -5.54052    -5.09189    -5.09071    -5.08944    -3.85190
    -3.85150    -3.85127    -3.85032    -3.84996    -3.84984    -1.24777
    -1.22650    -1.17898    -1.13045    -1.11017    -1.09987    -1.07911
    -1.06701    -1.05149    -0.98502    -0.97043    -0.96998    -0.94792
    -0.94572    -0.94423    -0.94008    -0.93788    -0.93531    -0.92414
    -0.91573    -0.91418    -0.89640    -0.89327    -0.88728    -0.87192
    -0.85659    -0.84984    -0.84552    -0.84455    -0.83866    -0.83749
    -0.83741    -0.83465    -0.83304    -0.83210    -0.83138    -0.82951
    -0.82856    -0.82777    -0.82640    -0.82543    -0.82424    -0.82122
    -0.80379    -0.79813    -0.74859    -0.74021    -0.72946    -0.71392
    -0.70930    -0.70475    -0.70024    -0.69175    -0.68829    -0.68228
    -0.68099    -0.67930    -0.67869    -0.67716    -0.67520    -0.67378
    -0.67082    -0.66979    -0.66564    -0.66497    -0.66232    -0.66105
    -0.66027    -0.65964    -0.65696    -0.64995    -0.64231    -0.63905
    -0.62535    -0.61001    -0.60827    -0.60395    -0.60164    -0.59740
    -0.58430    -0.58267    -0.58141    -0.57861    -0.57699    -0.57584
    -0.57344    -0.57115    -0.56267    -0.56223    -0.55000    -0.54775
    -0.54510    -0.54382    -0.53958    -0.53864    -0.53194    -0.52839
    -0.52689    -0.52371    -0.52001    -0.51906    -0.51654    -0.51568
    -0.51395    -0.51241    -0.51131    -0.50880    -0.50604    -0.50380
    -0.50285    -0.50126    -0.50121    -0.49893    -0.49825    -0.49771
    -0.49582    -0.49498    -0.49448    -0.49276    -0.49254    -0.49010
    -0.48559    -0.48556    -0.48396    -0.48377    -0.48331    -0.48140
    -0.47868    -0.47470    -0.47288    -0.47169    -0.46931    -0.46486
    -0.46321    -0.45984    -0.45491    -0.45392    -0.45168    -0.45107
    -0.44899    -0.44489    -0.44217    -0.43912    -0.43528    -0.43282
    -0.43195    -0.42796    -0.42639    -0.42510    -0.42370    -0.42277
    -0.41932    -0.41781    -0.41701    -0.41409    -0.41015    -0.40494
    -0.40319    -0.40207    -0.39677    -0.39637    -0.39596    -0.39365
    -0.39333    -0.39303    -0.39080    -0.38866    -0.38814    -0.38466
    -0.38330    -0.38130    -0.38058    -0.37673    -0.37536    -0.36009
    -0.35695    -0.35626    -0.35118    -0.34888    -0.34526    -0.34351
    -0.34234    -0.34098    -0.34033    -0.33824    -0.33174    -0.32929
    -0.32312    -0.31059    -0.30821    -0.30571    -0.30516    -0.30356
    -0.30257    -0.30139    -0.29975    -0.29669    -0.29409    -0.29304
    -0.29157    -0.29081    -0.28874    -0.28763    -0.28604    -0.27738
    -0.27584    -0.25783    -0.05423    -0.02540    -0.01145    -0.00321
     0.00634     0.01044     0.01651     0.01752     0.02048     0.02102
 
  Peak memory usage:   1020 Mb
  
  end of program scf
   
 Time(scf)  user:     2425.2  user+sys:     2425.2  wallclock:     2571.1
  
  start of program sole
  
    SCRF                   solvation energy
  iteration          Hartrees            kcal/mol
     0               0.0000000            0.0000
     1              -0.0170199          -10.6801
     2              -0.0181652          -11.3988
     3              -0.0183878          -11.5385
  
  solvation energy not yet converged... 
  
  Peak memory usage:    812 Mb
  
  end of program sole
   
 Time(sole)  user:        0.1  user+sys:        0.1  wallclock:        0.1
  
  start of program ch
  
  gridpoints used for charge fit        15621
    out of a possible maximum of        15621
  
   Electrostatic potential fitting constrained to reproduce
     total charge:                yes
     dipole moment:               no 
     traceless quadrupole moment: no 
     traceless octapole moment:   no 
  
  Atomic charges from electrostatic potential: 
   
 Atom       C1           C2           C3           C4           C5      
 Charge   -0.12243      0.05011     -0.17716      0.13122     -0.03891
   
 Atom       C6           C7           C8           C9           C10     
 Charge   -0.20834     -0.30968     -0.12588      0.01917     -0.13872
   
 Atom       C11          O12          Si13         C14          C15     
 Charge    0.15053     -0.18401     -0.25490      0.19300      0.16898
   
 Atom       C16          C17          C18          C19          C20     
 Charge    0.24307     -0.24889     -0.49498     -0.27140      0.03817
   
 Atom       Si21         O22          C23          C24          P25     
 Charge    0.14338     -0.20644     -0.13885     -0.11716      0.78079
   
 Atom       O26          O27          C28          C29          C30     
 Charge   -0.54357     -0.62090      0.07886      0.16196      0.20533
   
 Atom       C31          C32          C33          C34          C35     
 Charge    0.14372     -0.07298     -0.07491     -0.00689     -0.18043
   
 Atom       C36          C37          C38          C39          C40     
 Charge   -0.15973     -0.16633     -0.16358     -0.14081     -0.06934
   
 Atom       C41          C42          C43          C44          C45     
 Charge   -0.32164     -0.04798     -0.11536     -0.07455     -0.01356
   
 Atom       C46          C47          C48          C49          C50     
 Charge   -0.22135     -0.10110     -0.16213     -0.16003     -0.14040
   
 Atom       C51          C52          C53          C54          C55     
 Charge   -0.13915     -0.13847     -0.13577     -0.16324     -0.16386
   
 Atom       C56          C57          C58          C59          C60     
 Charge   -0.20041      0.00728     -0.18379     -0.11582     -0.14799
   
 Atom       C61          C62          C63          C64          C65     
 Charge   -0.18639     -0.12394     -0.14968     -0.16145     -0.14755
   
 Atom       C66          C67          C68          C69          C70     
 Charge    0.07642      0.08584     -0.14877     -0.14579     -0.07522
   
 Atom       N71          S72          O73          O74          C75     
 Charge   -0.39934      0.71366     -0.45430     -0.49525      0.58899
   
 Atom       C76          C77          C78          C79          N80     
 Charge   -0.41429      0.23770     -0.43680      0.39539     -0.64197
   
 Atom       N81          C82          C83          C84          C85     
 Charge    0.01589      0.03626     -0.29734     -0.12534     -0.14565
   
 Atom       H86          H87          H88          H89          H90     
 Charge    0.11605      0.15527      0.14776      0.15919      0.14317
   
 Atom       H91          H92          H93          H94          H95     
 Charge    0.15100      0.23034      0.16819      0.14988      0.14008
   
 Atom       H96          H97          H98          H99          H100    
 Charge    0.46090      0.09707      0.14715      0.11430      0.12900
   
 Atom       H101         H102         H103         H104         H105    
 Charge    0.09424      0.11451      0.08205      0.16952      0.07721
   
 Atom       H106         H107         H108         H109         H110    
 Charge    0.13739      0.09658      0.01229      0.15319      0.12691
   
 Atom       H111         H112         H113         H114         H115    
 Charge    0.13499      0.14495      0.13999      0.13892      0.13999
   
 Atom       H116         H117         H118         H119         H120    
 Charge    0.14719      0.14146      0.13424      0.15297      0.07938
   
 Atom       H121         H122         H123         H124         H125    
 Charge    0.14745      0.13425      0.13298      0.14437      0.13303
   
 Atom       H126         H127         H128         H129         H130    
 Charge    0.12503      0.15136      0.13570      0.03544      0.12298
   
 Atom       H131         H132         H133         H134         H135    
 Charge    0.14974      0.20685      0.10280      0.07766      0.16088
   
 Atom       H136         H137         H138         H139         H140    
 Charge    0.06882      0.20262      0.13846      0.19165      0.16876
   
 Atom       H141    
 Charge    0.20898
  
  sum of atomic charges:    -0.000000
   
 RMS Error   9.40E-04 hartrees
 
  Peak memory usage:    811 Mb
  
  end of program ch
   
 Time(ch)  user:       16.8  user+sys:       16.8  wallclock:       18.5
  
  start of program post
  
  Writing input files for PBF
  Peak memory usage:    758 Mb
  
  end of program post
   
 Time(post)  user:        0.8  user+sys:        0.8  wallclock:        3.2

  start of program pbf

Pbf Version 4.10

Molecular surface area:      779.00772   [A2]
Reaction field energy:       -18.76581   [kT]
  Peak memory usage: 718 Mb

  end of program pbf

 Time(pbf)  user:        8.8  user+sys:        8.8  wallclock:        8.9
  
  start of program solv
  
   number of surface charges from PBF   12942
   sum of surface charges     -0.00032
   
  nuclear repulsion energy.......   17668.796879549 hartrees
  Peak memory usage:    887 Mb
  
  end of program solv
   
 Time(solv)  user:       34.1  user+sys:       34.1  wallclock:       35.2
  
  start of program scf
  
 Energy computed with NOPS off.
  
       i  u  d  i  g                   
       t  p  i  c  r                                 RMS    maximum
       e  d  i  u  i                       energy  density   DIIS  
       r  t  s  t  d       total energy    change  change    error 
  
etot    1  N  N  1  U   -4710.09684534233           1.0E-05  2.1E-04
etot    2  N  Y  1  U   -4710.09678304531 -6.2E-05  6.6E-06  3.9E-04
etot    3  N  Y  1  U   -4710.09687159290  8.9E-05  2.3E-07  1.2E-05
etot    4  N  N  1  U   -4710.09687165533  6.2E-08  0.0E+00  0.0E+00
  
  
 Energy components, in hartrees:
   (A)  Total zero-electron terms....   17671.03452111703
   (B)    Nuclear-nuclear............   17668.79687954855
   (C)    Nuclear-solvent............       2.23764156848
   (E)  Total one-electron terms.....  -41677.74425075683
   (F)    Electron-nuclear...........  -46351.39810050742
   (G)    Electron-solvent...........      -2.27687200762
   (H)    Kinetic....................    4675.93072175820
   (I)  Total two-electron terms.....   19296.61285798448
   (J)    Coulomb....................   19870.13159242224
   (K)    Exchange+Correlation.......    -573.51873443777
   (L)  Electronic energy............  -22381.13139277236  (E+I)
   (N)  Total quantum mech. energy...   -4710.09687165533  (A+L)
   (O)  Gas phase energy.............   -4710.05893684994
   (P)  Solution phase energy........   -4710.07725643576  (Q+R+S)
   (Q)    Total solute energy........   -4710.05764121619  (N-C-G)
   (R)    Total solvent energy.......      -0.01961521957  (C/2+G/2)
   (S)    Solute cavity energy.......       0.00000000000
   (U)  Reorganization energy........       0.00129563375  (Q-O)
   (V)  Solvation energy.............      -0.01831958582  (P-O)
  
 SCFE:  Solution phase energy: DFT(m06-2x)      -4710.07725643576 hartrees
        SCF iterations:   4
  
 
 HOMO energy:    -0.25777
 LUMO energy:    -0.05361
 
  Orbital energies (hartrees): 
   -90.16173   -78.19266   -67.01015   -67.00819   -19.68290   -19.68177
   -19.64491   -19.64306   -19.60056   -19.59637   -14.80623   -14.79405
   -14.78235   -10.65196   -10.62502   -10.62324   -10.61951   -10.60393
   -10.59553   -10.58983   -10.57602   -10.57417   -10.57393   -10.57296
   -10.57189   -10.57024   -10.57011   -10.56965   -10.56610   -10.56594
   -10.56569   -10.56363   -10.56116   -10.56116   -10.56052   -10.56038
   -10.55958   -10.55865   -10.55851   -10.55809   -10.55658   -10.55606
   -10.55524   -10.55498   -10.55489   -10.55335   -10.55268   -10.55238
   -10.55223   -10.55176   -10.55171   -10.55143   -10.55129   -10.55095
   -10.55086   -10.55083   -10.54966   -10.54962   -10.54961   -10.54890
   -10.54816   -10.54813   -10.54792   -10.54743   -10.54703   -10.54676
   -10.54566   -10.54539   -10.54519   -10.54400   -10.54375   -10.54194
   -10.54168   -10.54122   -10.54071   -10.54019   -10.54000   -10.53871
   -10.53652   -10.53587   -10.53531   -10.53501   -10.52962   -10.52839
   -10.52811    -8.47351    -6.97273    -6.39550    -6.39480    -6.39405
    -5.54151    -5.53940    -5.09127    -5.09009    -5.08882    -3.85136
    -3.85096    -3.85073    -3.84920    -3.84884    -3.84871    -1.24680
    -1.22595    -1.17852    -1.12985    -1.10960    -1.09942    -1.07766
    -1.06577    -1.04985    -0.98512    -0.97048    -0.96968    -0.94781
    -0.94545    -0.94414    -0.94007    -0.93754    -0.93474    -0.92424
    -0.91563    -0.91408    -0.89561    -0.89318    -0.88743    -0.87138
    -0.85670    -0.84972    -0.84541    -0.84419    -0.83859    -0.83734
    -0.83725    -0.83447    -0.83307    -0.83209    -0.83130    -0.82927
    -0.82844    -0.82770    -0.82573    -0.82531    -0.82388    -0.82071
    -0.80372    -0.79732    -0.74784    -0.73989    -0.72890    -0.71348
    -0.70875    -0.70468    -0.70008    -0.69166    -0.68785    -0.68188
    -0.68091    -0.67914    -0.67846    -0.67676    -0.67511    -0.67360
    -0.67082    -0.66942    -0.66554    -0.66440    -0.66203    -0.66112
    -0.66018    -0.65947    -0.65648    -0.64987    -0.64156    -0.63895
    -0.62510    -0.60978    -0.60767    -0.60364    -0.60158    -0.59678
    -0.58419    -0.58263    -0.58123    -0.57856    -0.57663    -0.57546
    -0.57307    -0.57050    -0.56246    -0.56212    -0.54965    -0.54743
    -0.54484    -0.54320    -0.53926    -0.53820    -0.53176    -0.52817
    -0.52655    -0.52355    -0.51985    -0.51892    -0.51639    -0.51546
    -0.51375    -0.51223    -0.51090    -0.50868    -0.50566    -0.50366
    -0.50268    -0.50109    -0.50092    -0.49905    -0.49816    -0.49760
    -0.49545    -0.49492    -0.49424    -0.49235    -0.49217    -0.48935
    -0.48550    -0.48518    -0.48387    -0.48359    -0.48319    -0.48127
    -0.47868    -0.47451    -0.47269    -0.47106    -0.46924    -0.46472
    -0.46373    -0.45979    -0.45477    -0.45379    -0.45143    -0.45074
    -0.44893    -0.44446    -0.44195    -0.43897    -0.43499    -0.43246
    -0.43154    -0.42779    -0.42621    -0.42496    -0.42347    -0.42243
    -0.41912    -0.41762    -0.41664    -0.41358    -0.40986    -0.40459
    -0.40302    -0.40204    -0.39658    -0.39610    -0.39518    -0.39351
    -0.39312    -0.39294    -0.39051    -0.38831    -0.38796    -0.38439
    -0.38288    -0.38093    -0.37988    -0.37611    -0.37483    -0.35960
    -0.35659    -0.35590    -0.35080    -0.34873    -0.34472    -0.34312
    -0.34180    -0.34057    -0.33952    -0.33730    -0.33179    -0.32928
    -0.32248    -0.31006    -0.30810    -0.30557    -0.30507    -0.30333
    -0.30228    -0.30129    -0.29960    -0.29609    -0.29405    -0.29277
    -0.29136    -0.29064    -0.28843    -0.28729    -0.28543    -0.27683
    -0.27585    -0.25777    -0.05361    -0.02528    -0.01076    -0.00319
     0.00665     0.01072     0.01667     0.01795     0.02069     0.02125
 
  Peak memory usage:   1020 Mb
  
  end of program scf
   
 Time(scf)  user:     7198.0  user+sys:     7198.0  wallclock:     7633.7
  
  start of program sole
  
    SCRF                   solvation energy
  iteration          Hartrees            kcal/mol
     0               0.0000000            0.0000
     1              -0.0170199          -10.6801
     2              -0.0181652          -11.3988
     3              -0.0183878          -11.5385
     4              -0.0183196          -11.4957
  
  stopping: solvation energy converged
  
  iterations:   4    sfinal:    -11.4957 kcal/mol
  
  Peak memory usage:    812 Mb
  
  end of program sole
   
 Time(sole)  user:        0.1  user+sys:        0.1  wallclock:        0.2
  
  start of program post
  
  Writing input files for PBF
  Peak memory usage:    758 Mb
  
  end of program post
   
 Time(post)  user:        0.7  user+sys:        0.7  wallclock:        1.0

 Total cpu seconds     user:   45115.168   user+sys:   45115.168
  
 Total elapsed time:    48034 seconds

Job Toru-SiPh3-Type-I-E-2-chkp4-unrestrained-m06-2-restrained-unrestrained-SPE completed on tethys at Wed Mar  8 05:04:00 2017
