Job Toru-SiPh3-NTf-Type-II-E-Sulfonyl-1-chkp-scan-207-unrestrained-IRC-max-disp-SPE started on tethys at Wed Mar 29 17:08:21 2017
jobid: tethys-0-58dbdbf2

  +--------------------------------------------------------------------+
  |  Jaguar version 9.5, release  11                                   |
  |                                                                    |
  |  Copyright Schrodinger, Inc.                                       |
  |  All Rights Reserved.                                              |
  |                                                                    |
  |  The following have contributed to Jaguar (listed alphabetically): |
  |  Mike Beachy, Art Bochevarov, Dale Braden, Yixiang Cao,            |
  |  Chris Cortis, Rich Friesner, Bill Goddard, Hod Greeley,           |
  |  Tom Hughes, Leif Jacobson, Jean-Marc Langlois,                    |
  |  Daniel Mainz, Rob Murphy, Dean Philipp, Tom Pollard,              |
  |  Murco Ringnalda, Mark Watson, Haoyu Yu.                           |
  |                                                                    |
  |  Use of this program should be acknowledged in publications as:    |
  |                                                                    |
  |  Jaguar, version 9.5, Schrodinger, Inc., New York, NY, 2017.       |
  |                                                                    |
  |  A. D. Bochevarov, E. Harder, T. F. Hughes, J. R. Greenwood,       |
  |  D. A. Braden, D. M. Philipp, D. Rinaldo, M. D. Halls,             |
  |  J. Zhang, R. A. Friesner, "Jaguar: A High-Performance Quantum     |
  |  Chemistry Software Program with Strengths in Life and Materials   |
  |  Sciences", Int. J. Quantum Chem., 2013, 113(18), 2110-2142.       |
  +--------------------------------------------------------------------+
  
  start of program pre
  
  Job name: 
 Toru-SiPh3-NTf-Type-II-E-Sulfonyl-1-chkp-scan-207-unrestrained-IRC-max-disp-SPE
  Executables used: /usr/local/shared/schrodinger/current/jaguar-v9.5/bin/Linux-x86_64
  Temporary files : /scratch/ab2144/Toru-SiPh3-NTf-Type-II-E-Sulfonyl-1-chkp-scan-207-unrestrained-IRC-max-disp-SPE
  Maestro file (input):  Toru-SiPh3-NTf-Type-II-E-Sulfonyl-1-chkp-scan-207-unrestrained-IRC-max-disp-SPE.mae
  Maestro file (output): Toru-SiPh3-NTf-Type-II-E-Sulfonyl-1-chkp-scan-207-unrestrained-IRC-max-disp-SPE.01.mae
  
  basis set:             6-31g**                         
  net molecular charge:    0
  multiplicity:            1
  
  keygrid settings 
    wispc.....   7.500E-01
    ldens.....   0
    denspc....   7.500E-01
  
   grid     daf set  nls  grid set  Q type
  ------    -------  ---  --------  ------
  coarse       1      1       1        1
  medium       2      2       2        1
  fine         3      2       3        0
  ultrafine    4      2       4        1
  charge       0      1      -1        1
  gradient     5      2       4        1
  density      0      1       0        0
  DFT-fine     0      1     -13        0
  DFT-med.     0      1     -13        0
  DFT-grad     0      1     -13        0
  DFT-der2     0      1       0        0
  DFT-cphf     0      1       0        0
  LMP2-enrg    4      2       4        1
  LMP2-grad    5      2       2        1
  DFT-cphf2    0      1       0        0
  PBF-dens     0      1       0        0
  plotting     0      1       0        0
  Rel-grad     0      1     -17        0
  
  idftgrdm  100
  ndftgrdm   50    0    0
  idftgrdf  111
  ndftgrdf   85    0    0
  idftgrdg  111
  ndftgrdg   80    3    0
  idftgrdu  433
  ndftgrdu  105    0    0
  idftgrdd  433
  ndftgrdd  105    0    0
  idftgrdc  433
  ndftgrdc   26    0    0
  idftgrdp  433
  ndftgrdp   18    0    0
  
  number of basis functions....         1680
  
 Input geometry:
                                   angstroms
  atom               x                 y                 z
  C1           -3.1424000000     -4.6838000000     -1.6435000000 
  C2           -1.7497000000     -4.3312000000     -1.2447000000 
  C3           -3.4973000000     -5.9629000000     -1.8106000000 
  C4           -0.8721000000     -5.3283000000     -0.9999000000 
  C5           -1.3159000000     -2.9079000000     -1.0769000000 
  C6           -1.2734000000     -6.7415000000     -1.1941000000 
  C7            0.4735000000     -5.0197000000     -0.4882000000 
  C8           -2.5161000000     -7.0400000000     -1.5855000000 
  C9           -0.1136000000     -2.6394000000     -0.5028000000 
  C10          -2.2259000000     -1.8055000000     -1.4851000000 
  C11           0.8264000000     -3.7578000000     -0.2082000000 
  O12           0.3573000000     -1.3519000000     -0.3831000000 
  Si13          2.4836000000     -3.4124000000      0.5807000000 
  C14          -2.7122000000     -1.6772000000     -2.7405000000 
  C15          -2.6900000000     -0.8767000000     -0.4255000000 
  C16          -3.8164000000     -0.7176000000     -3.0021000000 
  C17          -2.2027000000     -2.4667000000     -3.8886000000 
  C18          -4.3287000000      0.0124000000     -2.0013000000 
  C19          -4.3578000000     -0.6197000000     -4.3716000000 
  C20          -3.7469000000     -0.0681000000     -0.6429000000 
  Si21         -4.4730000000      1.0155000000      0.6937000000 
  O22          -1.9817000000     -0.8117000000      0.7466000000 
  C23          -2.7392000000     -2.3186000000     -5.1056000000 
  C24          -3.8497000000     -1.3732000000     -5.3533000000 
  P25          -0.4577000000     -0.2681000000      0.5418000000 
  O26           0.1621000000     -0.0648000000      1.8828000000 
  N27          -0.6151000000      1.0517000000     -0.4151000000 
  C28           3.5675000000     -4.9238000000      0.5476000000 
  C29           3.2977000000     -2.0322000000     -0.3649000000 
  C30           2.2361000000     -2.9914000000      2.3758000000 
  C31          -3.9191000000      2.7809000000      0.4557000000 
  C32          -6.3258000000      0.8877000000      0.5394000000 
  C33          -3.9597000000      0.3787000000      2.3725000000 
  C34           4.6644000000     -4.9817000000     -0.2266000000 
  C35           3.2343000000     -6.0710000000      1.4266000000 
  C36           3.9226000000     -1.0228000000      0.2629000000 
  C37           3.2590000000     -2.0553000000     -1.8470000000 
  C38           3.2971000000     -2.8663000000      3.1906000000 
  C39           0.8682000000     -2.8786000000      2.9410000000 
  C40          -3.2055000000      3.1454000000     -0.6234000000 
  C41          -4.2789000000      3.8060000000      1.4668000000 
  C42          -7.1084000000      1.9810000000      0.5313000000 
  C43          -6.9479000000     -0.4488000000      0.3676000000 
  C44          -4.3091000000     -0.8602000000      2.7612000000 
  C45          -3.0834000000      1.1903000000      3.2532000000 
  C46           5.5183000000     -6.1881000000     -0.2157000000 
  C47           5.2077000000     -7.2236000000      0.5730000000 
  C48           4.0109000000     -7.1612000000      1.4358000000 
  C49           4.5747000000      0.0489000000     -0.5179000000 
  C50           4.5342000000      0.0239000000     -1.8545000000 
  C51           3.8411000000     -1.0772000000     -2.5518000000 
  C52           3.1033000000     -2.5865000000      4.6284000000 
  C53           1.8678000000     -2.4622000000      5.1273000000 
  C54           0.6959000000     -2.6177000000      4.2426000000 
  C55          -2.7808000000      4.5507000000     -0.7958000000 
  C56          -3.0966000000      5.4659000000      0.1272000000 
  C57          -3.8825000000      5.0751000000      1.3139000000 
  C58          -8.5740000000      1.8480000000      0.3947000000 
  C59          -9.1290000000      0.6383000000      0.2607000000 
  C60          -8.2752000000     -0.5655000000      0.2393000000 
  C61          -3.8335000000     -1.4021000000      4.0510000000 
  C62          -3.0421000000     -0.6646000000      4.8371000000 
  C63          -2.6491000000      0.6944000000      4.4183000000 
  C64           4.6451000000      1.9318000000      4.4155000000 
  C65           4.7369000000      2.7818000000      3.3251000000 
  C66           3.8639000000      2.6177000000      2.2232000000 
  C67           2.8920000000      1.5941000000      2.2426000000 
  C68           2.7969000000      0.7599000000      3.3471000000 
  C69           3.6709000000      0.9255000000      4.4260000000 
  C70           4.0055000000      3.5517000000      1.1479000000 
  N71           3.3665000000      3.5582000000      0.0122000000 
  S72           3.6164000000      4.9177000000     -1.1300000000 
  O73           2.2943000000      5.4656000000     -1.3779000000 
  O74           4.7032000000      5.6900000000     -0.5427000000 
  C75           4.1658000000      4.0090000000     -2.5975000000 
  C76           3.2012000000      3.5788000000     -3.5035000000 
  C77           3.6774000000      2.8928000000     -4.6230000000 
  C78           5.0495000000      2.6996000000     -4.7652000000 
  C79           5.9105000000      3.1799000000     -3.7730000000 
  N80           5.4750000000      3.8241000000     -2.6856000000 
  N81          -0.1102000000      2.7704000000      2.7949000000 
  C82           0.0913000000      3.2726000000      4.0565000000 
  C83           0.0064000000      4.6486000000      3.9882000000 
  C84          -0.2608000000      4.9862000000      2.6299000000 
  C85          -0.3307000000      3.8053000000      1.9187000000 
  H86          -3.8911000000     -3.9166000000     -1.7855000000 
  H87          -4.5104000000     -6.2119000000     -2.0992000000 
  H88          -0.5622000000     -7.5387000000     -1.0163000000 
  H89           1.1489000000     -5.8408000000     -0.2971000000 
  H90          -2.8090000000     -8.0726000000     -1.7250000000 
  H91          -1.3779000000     -3.1567000000     -3.7641000000 
  H92          -5.1493000000      0.6946000000     -2.1902000000 
  H93          -5.1701000000      0.0630000000     -4.5907000000 
  H94          -2.3506000000     -2.8986000000     -5.9329000000 
  H95          -4.2554000000     -1.2901000000     -6.3534000000 
  H96           4.9431000000     -4.1568000000     -0.8676000000 
  H97           2.3601000000     -6.0315000000      2.0646000000 
  H98           3.9732000000     -0.9799000000      1.3397000000 
  H99           2.7545000000     -2.8609000000     -2.3656000000 
  H100          4.3048000000     -2.9785000000      2.8099000000 
  H101         -0.0015000000     -3.0026000000      2.3108000000 
  H102         -2.9312000000      2.4275000000     -1.3835000000 
  H103         -4.8597000000      3.5296000000      2.3380000000 
  H104         -6.6918000000      2.9724000000      0.6227000000 
  H105         -6.3325000000     -1.3368000000      0.3156000000 
  H106         -4.9107000000     -1.4946000000      2.1277000000 
  H107         -2.7682000000      2.1783000000      2.9564000000 
  H108          6.3965000000     -6.2307000000     -0.8469000000 
  H109          5.8330000000     -8.1070000000      0.5822000000 
  H110          3.7650000000     -7.9981000000      2.0766000000 
  H111          5.0834000000      0.8551000000     -0.0058000000 
  H112          5.0097000000      0.8077000000     -2.4260000000 
  H113          3.8065000000     -1.0913000000     -3.6334000000 
  H114          3.9638000000     -2.4771000000      5.2754000000 
  H115          1.7247000000     -2.2513000000      6.1790000000 
  H116         -0.3025000000     -2.5262000000      4.6506000000 
  H117         -2.2088000000      4.8365000000     -1.6688000000 
  H118         -2.7797000000      6.4935000000      0.0052000000 
  H119         -4.1403000000      5.8182000000      2.0572000000 
  H120         -9.1972000000      2.7330000000      0.4028000000 
  H121        -10.2020000000      0.5400000000      0.1591000000 
  H122         -8.7245000000     -1.5412000000      0.1065000000 
  H123         -4.1185000000     -2.4018000000      4.3522000000 
  H124         -2.6856000000     -1.0631000000      5.7782000000 
  H125         -2.0040000000      1.2858000000      5.0543000000 
  H126          5.3151000000      2.0540000000      5.2600000000 
  H127          5.4758000000      3.5779000000      3.3099000000 
  H128          2.2078000000      1.4489000000      1.4159000000 
  H129          2.0223000000      0.0025000000      3.3466000000 
  H130          3.5886000000      0.2735000000      5.2904000000 
  H131          4.7216000000      4.3654000000      1.2678000000 
  H132          2.1457000000      3.7563000000     -3.3337000000 
  H133          2.9799000000      2.5132000000     -5.3613000000 
  H134          5.4539000000      2.1756000000     -5.6247000000 
  H135          6.9851000000      3.0360000000     -3.8477000000 
  H136         -0.1229000000      1.7830000000      2.5460000000 
  H137          0.2749000000      2.6153000000      4.8937000000 
  H138          0.1186000000      5.3324000000      4.8187000000 
  H139         -0.3966000000      5.9772000000      2.2193000000 
  H140         -0.5324000000      3.6163000000      0.8757000000 
  S141          0.4023000000      1.7350000000     -1.3698000000 
  O142          1.8509000000      1.5610000000     -0.9958000000 
  C143          0.2701000000      0.8509000000     -3.0228000000 
  O144          0.0196000000      3.1090000000     -1.7146000000 
  F145          0.6853000000     -0.4155000000     -2.9738000000 
  F146         -1.0036000000      0.8722000000     -3.4280000000 
  F147          1.0144000000      1.5006000000     -3.9405000000 
  H148          2.6721000000      2.8209000000     -0.3003000000 
   
  principal moments of inertia:
        amu*angstrom^2:    22086.09221    24883.23946    30731.94327
                g*cm^2: 3.66748144E-36 4.13195861E-36 5.10315860E-36
   
  rotational constants:
               cm^(-1):      0.00076327      0.00067747      0.00054854
                   GHz:      0.02288223      0.02031002      0.01644475
   
  Molecular weight:    1308.28 amu
   
  Stoichiometry: Si2C73PN4H56S2O7F3
[running at reduced cpu priority]
  Molecular Point Group: C1      
  Point Group used: C1
  
  nuclear repulsion energy.......   20803.889405240 hartrees
 
 Non-default options chosen:
   SCF calculation type: DFT(m06-2x)                 
   DFT=M06-2X
   Solvation energy will be computed using PBF
     -solute cavity energy will not be included
     -surface area terms will not be included
   Highest accuracy cutoffs used in SCF
   Solvent: other                                                           
   Internal dielectric constant:    1.000
   Continuum dielectric constant:   2.380
   Solvent probe molecule radius:   2.760
  
 Temporary integer options set:
     73=  2
  
  atom       vdw   vdw2    cov     mass  grid  daf  charge   basis
  C1        1.949  1.900  0.770   12.000    Y    Y      Y    6-31g**
  C2        1.949  1.900  0.770   12.000    Y    Y      Y    6-31g**
  C3        1.949  1.900  0.770   12.000    Y    Y      Y    6-31g**
  C4        1.949  1.900  0.770   12.000    Y    Y      Y    6-31g**
  C5        1.949  1.900  0.770   12.000    Y    Y      Y    6-31g**
  C6        1.949  1.900  0.770   12.000    Y    Y      Y    6-31g**
  C7        1.949  1.900  0.770   12.000    Y    Y      Y    6-31g**
  C8        1.949  1.900  0.770   12.000    Y    Y      Y    6-31g**
  C9        1.949  1.900  0.770   12.000    Y    Y      Y    6-31g**
  C10       1.949  1.900  0.770   12.000    Y    Y      Y    6-31g**
  C11       1.949  1.900  0.770   12.000    Y    Y      Y    6-31g**
  O12       1.702  1.600  0.730   15.995    Y    Y      Y    6-31g**
  Si13      2.217  2.147  1.110   27.977    Y    Y      Y    6-31g**
  C14       1.949  1.900  0.770   12.000    Y    Y      Y    6-31g**
  C15       1.949  1.900  0.770   12.000    Y    Y      Y    6-31g**
  C16       1.949  1.900  0.770   12.000    Y    Y      Y    6-31g**
  C17       1.949  1.900  0.770   12.000    Y    Y      Y    6-31g**
  C18       1.949  1.900  0.770   12.000    Y    Y      Y    6-31g**
  C19       1.949  1.900  0.770   12.000    Y    Y      Y    6-31g**
  C20       1.949  1.900  0.770   12.000    Y    Y      Y    6-31g**
  Si21      2.217  2.147  1.110   27.977    Y    Y      Y    6-31g**
  O22       1.702  1.600  0.730   15.995    Y    Y      Y    6-31g**
  C23       1.949  1.900  0.770   12.000    Y    Y      Y    6-31g**
  C24       1.949  1.900  0.770   12.000    Y    Y      Y    6-31g**
  P25       2.147  2.074  1.060   30.974    Y    Y      Y    6-31g**
  O26       1.702  1.600  0.730   15.995    Y    Y      Y    6-31g**
  N27       1.831  1.600  0.750   14.003    Y    Y      Y    6-31g**
  C28       1.949  1.900  0.770   12.000    Y    Y      Y    6-31g**
  C29       1.949  1.900  0.770   12.000    Y    Y      Y    6-31g**
  C30       1.949  1.900  0.770   12.000    Y    Y      Y    6-31g**
  C31       1.949  1.900  0.770   12.000    Y    Y      Y    6-31g**
  C32       1.949  1.900  0.770   12.000    Y    Y      Y    6-31g**
  C33       1.949  1.900  0.770   12.000    Y    Y      Y    6-31g**
  C34       1.949  1.900  0.770   12.000    Y    Y      Y    6-31g**
  C35       1.949  1.900  0.770   12.000    Y    Y      Y    6-31g**
  C36       1.949  1.900  0.770   12.000    Y    Y      Y    6-31g**
  C37       1.949  1.900  0.770   12.000    Y    Y      Y    6-31g**
  C38       1.949  1.900  0.770   12.000    Y    Y      Y    6-31g**
  C39       1.949  1.900  0.770   12.000    Y    Y      Y    6-31g**
  C40       1.949  1.900  0.770   12.000    Y    Y      Y    6-31g**
  C41       1.949  1.900  0.770   12.000    Y    Y      Y    6-31g**
  C42       1.949  1.900  0.770   12.000    Y    Y      Y    6-31g**
  C43       1.949  1.900  0.770   12.000    Y    Y      Y    6-31g**
  C44       1.949  1.900  0.770   12.000    Y    Y      Y    6-31g**
  C45       1.949  1.900  0.770   12.000    Y    Y      Y    6-31g**
  C46       1.949  1.900  0.770   12.000    Y    Y      Y    6-31g**
  C47       1.949  1.900  0.770   12.000    Y    Y      Y    6-31g**
  C48       1.949  1.900  0.770   12.000    Y    Y      Y    6-31g**
  C49       1.949  1.900  0.770   12.000    Y    Y      Y    6-31g**
  C50       1.949  1.900  0.770   12.000    Y    Y      Y    6-31g**
  C51       1.949  1.900  0.770   12.000    Y    Y      Y    6-31g**
  C52       1.949  1.900  0.770   12.000    Y    Y      Y    6-31g**
  C53       1.949  1.900  0.770   12.000    Y    Y      Y    6-31g**
  C54       1.949  1.900  0.770   12.000    Y    Y      Y    6-31g**
  C55       1.949  1.900  0.770   12.000    Y    Y      Y    6-31g**
  C56       1.949  1.900  0.770   12.000    Y    Y      Y    6-31g**
  C57       1.949  1.900  0.770   12.000    Y    Y      Y    6-31g**
  C58       1.949  1.900  0.770   12.000    Y    Y      Y    6-31g**
  C59       1.949  1.900  0.770   12.000    Y    Y      Y    6-31g**
  C60       1.949  1.900  0.770   12.000    Y    Y      Y    6-31g**
  C61       1.949  1.900  0.770   12.000    Y    Y      Y    6-31g**
  C62       1.949  1.900  0.770   12.000    Y    Y      Y    6-31g**
  C63       1.949  1.900  0.770   12.000    Y    Y      Y    6-31g**
  C64       1.949  1.900  0.770   12.000    Y    Y      Y    6-31g**
  C65       1.949  1.900  0.770   12.000    Y    Y      Y    6-31g**
  C66       1.949  1.900  0.770   12.000    Y    Y      Y    6-31g**
  C67       1.949  1.900  0.770   12.000    Y    Y      Y    6-31g**
  C68       1.949  1.900  0.770   12.000    Y    Y      Y    6-31g**
  C69       1.949  1.900  0.770   12.000    Y    Y      Y    6-31g**
  C70       1.949  1.900  0.770   12.000    Y    Y      Y    6-31g**
  N71       1.831  1.600  0.750   14.003    Y    Y      Y    6-31g**
  S72       2.070  1.900  1.020   31.972    Y    Y      Y    6-31g**
  O73       1.702  1.600  0.730   15.995    Y    Y      Y    6-31g**
  O74       1.702  1.600  0.730   15.995    Y    Y      Y    6-31g**
  C75       1.949  1.900  0.770   12.000    Y    Y      Y    6-31g**
  C76       1.949  1.900  0.770   12.000    Y    Y      Y    6-31g**
  C77       1.949  1.900  0.770   12.000    Y    Y      Y    6-31g**
  C78       1.949  1.900  0.770   12.000    Y    Y      Y    6-31g**
  C79       1.949  1.900  0.770   12.000    Y    Y      Y    6-31g**
  N80       1.831  1.600  0.750   14.003    Y    Y      Y    6-31g**
  N81       1.831  1.600  0.750   14.003    Y    Y      Y    6-31g**
  C82       1.949  1.900  0.770   12.000    Y    Y      Y    6-31g**
  C83       1.949  1.900  0.770   12.000    Y    Y      Y    6-31g**
  C84       1.949  1.900  0.770   12.000    Y    Y      Y    6-31g**
  C85       1.949  1.900  0.770   12.000    Y    Y      Y    6-31g**
  H86       1.597  1.150  0.320    1.008    Y    Y      Y    6-31g**
  H87       1.597  1.150  0.320    1.008    Y    Y      Y    6-31g**
  H88       1.597  1.150  0.320    1.008    Y    Y      Y    6-31g**
  H89       1.597  1.150  0.320    1.008    Y    Y      Y    6-31g**
  H90       1.597  1.150  0.320    1.008    Y    Y      Y    6-31g**
  H91       1.597  1.150  0.320    1.008    Y    Y      Y    6-31g**
  H92       1.597  1.150  0.320    1.008    Y    Y      Y    6-31g**
  H93       1.597  1.150  0.320    1.008    Y    Y      Y    6-31g**
  H94       1.597  1.150  0.320    1.008    Y    Y      Y    6-31g**
  H95       1.597  1.150  0.320    1.008    Y    Y      Y    6-31g**
  H96       1.597  1.150  0.320    1.008    Y    Y      Y    6-31g**
  H97       1.597  1.150  0.320    1.008    Y    Y      Y    6-31g**
  H98       1.597  1.150  0.320    1.008    Y    Y      Y    6-31g**
  H99       1.597  1.150  0.320    1.008    Y    Y      Y    6-31g**
  H100      1.597  1.150  0.320    1.008    Y    Y      Y    6-31g**
  H101      1.597  1.150  0.320    1.008    Y    Y      Y    6-31g**
  H102      1.597  1.150  0.320    1.008    Y    Y      Y    6-31g**
  H103      1.597  1.150  0.320    1.008    Y    Y      Y    6-31g**
  H104      1.597  1.150  0.320    1.008    Y    Y      Y    6-31g**
  H105      1.597  1.150  0.320    1.008    Y    Y      Y    6-31g**
  H106      1.597  1.150  0.320    1.008    Y    Y      Y    6-31g**
  H107      1.597  1.150  0.320    1.008    Y    Y      Y    6-31g**
  H108      1.597  1.150  0.320    1.008    Y    Y      Y    6-31g**
  H109      1.597  1.150  0.320    1.008    Y    Y      Y    6-31g**
  H110      1.597  1.150  0.320    1.008    Y    Y      Y    6-31g**
  H111      1.597  1.150  0.320    1.008    Y    Y      Y    6-31g**
  H112      1.597  1.150  0.320    1.008    Y    Y      Y    6-31g**
  H113      1.597  1.150  0.320    1.008    Y    Y      Y    6-31g**
  H114      1.597  1.150  0.320    1.008    Y    Y      Y    6-31g**
  H115      1.597  1.150  0.320    1.008    Y    Y      Y    6-31g**
  H116      1.597  1.150  0.320    1.008    Y    Y      Y    6-31g**
  H117      1.597  1.150  0.320    1.008    Y    Y      Y    6-31g**
  H118      1.597  1.150  0.320    1.008    Y    Y      Y    6-31g**
  H119      1.597  1.150  0.320    1.008    Y    Y      Y    6-31g**
  H120      1.597  1.150  0.320    1.008    Y    Y      Y    6-31g**
  H121      1.597  1.150  0.320    1.008    Y    Y      Y    6-31g**
  H122      1.597  1.150  0.320    1.008    Y    Y      Y    6-31g**
  H123      1.597  1.150  0.320    1.008    Y    Y      Y    6-31g**
  H124      1.597  1.150  0.320    1.008    Y    Y      Y    6-31g**
  H125      1.597  1.150  0.320    1.008    Y    Y      Y    6-31g**
  H126      1.597  1.150  0.320    1.008    Y    Y      Y    6-31g**
  H127      1.597  1.150  0.320    1.008    Y    Y      Y    6-31g**
  H128      1.597  1.150  0.320    1.008    Y    Y      Y    6-31g**
  H129      1.597  1.150  0.320    1.008    Y    Y      Y    6-31g**
  H130      1.597  1.150  0.320    1.008    Y    Y      Y    6-31g**
  H131      1.597  1.150  0.320    1.008    Y    Y      Y    6-31g**
  H132      1.597  1.150  0.320    1.008    Y    Y      Y    6-31g**
  H133      1.597  1.150  0.320    1.008    Y    Y      Y    6-31g**
  H134      1.597  1.150  0.320    1.008    Y    Y      Y    6-31g**
  H135      1.597  1.150  0.320    1.008    Y    Y      Y    6-31g**
  H136      1.597  1.150  0.320    1.008    Y    Y      Y    6-31g**
  H137      1.597  1.150  0.320    1.008    Y    Y      Y    6-31g**
  H138      1.597  1.150  0.320    1.008    Y    Y      Y    6-31g**
  H139      1.597  1.150  0.320    1.008    Y    Y      Y    6-31g**
  H140      1.597  1.150  0.320    1.008    Y    Y      Y    6-31g**
  S141      2.070  1.900  1.020   31.972    Y    Y      Y    6-31g**
  O142      1.702  1.600  0.730   15.995    Y    Y      Y    6-31g**
  C143      1.949  1.900  0.770   12.000    Y    Y      Y    6-31g**
  O144      1.702  1.600  0.730   15.995    Y    Y      Y    6-31g**
  F145      1.736  1.682  0.720   18.998    Y    Y      Y    6-31g**
  F146      1.736  1.682  0.720   18.998    Y    Y      Y    6-31g**
  F147      1.736  1.682  0.720   18.998    Y    Y      Y    6-31g**
  H148      1.597  1.150  0.320    1.008    Y    Y      Y    6-31g**
  
  Peak memory usage:    768 Mb
  
  end of program pre
   
 Time(pre)  user:        0.9  user+sys:        0.9  wallclock:        1.7
  
  start of program onee
  
  smallest eigenvalue of S:    2.271E-04
  number of canonical orbitals.....         1673
  Peak memory usage:    900 Mb
  
  end of program onee
   
 Time(onee)  user:       17.0  user+sys:       17.0  wallclock:       22.9
  
  start of program hfig
  
  initial wavefunction generated automatically from atomic wavefunctions
 
  Irreducible     Total no   No of occupied orbitals 
  representation  orbitals   Shell_1  Shell_2    ...
  No Symm         1673        340
  ------------------------
  Orbital occupation/shell    1.000
 
  Peak memory usage:    833 Mb
  
  end of program hfig
   
 Time(hfig)  user:       28.8  user+sys:       28.8  wallclock:       37.4
  
  start of program probe
  
  Peak memory usage:    826 Mb
  
  end of program probe
   
 Time(probe)  user:       20.3  user+sys:       20.3  wallclock:       25.4
  
  start of program grid
  
   grid     grid set  grid #  grid sym
  ------    --------  ------  --------
  coarse        0        0        1
  medium        2        1        1
  fine          0        0        1
  ultrafine     4        2        1
  charge       -1        3        1
  gradient      4        2        1
  density       0        0        1
  DFT-fine    -13        4        1
  DFT-med.    -13        4        1
  DFT-grad    -13        4        1
  DFT-der2      0        0        1
  DFT-cphf      0        0        1
  LMP2-enrg     4        2        1
  LMP2-grad     2        1        1
  DFT-cphf2     0        0        1
  PBF-dens      0        0        1
  plotting      0        0        1
  Rel-grad    -17        0        1
  
  number of gridpoints: 
     atom        C1       C2       C3       C4       C5       C6       C7
  grid # 1       97      101       94      102      100       96       93
  grid # 2      338      361      336      366      358      336      336
  grid # 3       34       28       42       47       17       46       28
  grid # 4    48124    48124    48124    48124    48124    48124    48124
   
  number of gridpoints: 
     atom        C8       C9      C10      C11      O12     Si13      C14
  grid # 1       94       97      100      100      111      473      101
  grid # 2      336      355      353      357      430      473      354
  grid # 3       48       14        9        8       26        7        7
  grid # 4    48124    48124    48124    48124    47716    38542    48124
   
  number of gridpoints: 
     atom       C15      C16      C17      C18      C19      C20     Si21
  grid # 1       97      101       96       93       97      100      469
  grid # 2      355      361      334      331      338      360      469
  grid # 3       15       23       18       16       34        8       10
  grid # 4    48124    48124    48124    48124    48124    48124    38542
   
  number of gridpoints: 
     atom       O22      C23      C24      P25      O26      N27      C28
  grid # 1      112       93       93      452      115      110       99
  grid # 2      438      338      337      452      456      401      358
  grid # 3       52       33       38        7       38       19       10
  grid # 4    47716    48124    48124    38640    47716    47928    48124
   
  number of gridpoints: 
     atom       C29      C30      C31      C32      C33      C34      C35
  grid # 1      101      101      100      100      102       93       94
  grid # 2      356      357      358      361      359      338      335
  grid # 3        6        8        9       20       21       29       19
  grid # 4    48124    48124    48124    48124    48124    48124    48124
   
  number of gridpoints: 
     atom       C36      C37      C38      C39      C40      C41      C42
  grid # 1       92       94       92       96       93       94       93
  grid # 2      333      331      333      334      334      330      338
  grid # 3       19       11       13       16       21       11       35
  grid # 4    48124    48124    48124    48124    48124    48124    48124
   
  number of gridpoints: 
     atom       C43      C44      C45      C46      C47      C48      C49
  grid # 1       95       94       96       94       94       93       93
  grid # 2      335      333      336      335      335      335      332
  grid # 3       28       32       22       47       48       36       24
  grid # 4    48124    48124    48124    48124    48124    48124    48124
   
  number of gridpoints: 
     atom       C50      C51      C52      C53      C54      C55      C56
  grid # 1       93       92       93       93       93       93       93
  grid # 2      332      333      331      331      333      330      333
  grid # 3       24       20       22       25       22       27       28
  grid # 4    48124    48124    48124    48124    48124    48124    48124
   
  number of gridpoints: 
     atom       C57      C58      C59      C60      C61      C62      C63
  grid # 1       92       94       94       94       93       93       93
  grid # 2      333      336      336      337      335      334      335
  grid # 3       23       45       47       42       36       33       32
  grid # 4    48124    48124    48124    48124    48124    48124    48124
   
  number of gridpoints: 
     atom       C64      C65      C66      C67      C68      C69      C70
  grid # 1       97       95       95       95       95       95       93
  grid # 2      336      337      354      326      328      333      337
  grid # 3       38       33       25       12       10       28       18
  grid # 4    48124    48124    48124    48124    48124    48124    48124
   
  number of gridpoints: 
     atom       N71      S72      O73      O74      C75      C76      C77
  grid # 1       98      452      122      123       98       96       96
  grid # 2      355      452      499      500      360      329      331
  grid # 3       22       21      245      279       35       34       33
  grid # 4    47928    48492    47716    47716    48124    48124    48124
   
  number of gridpoints: 
     atom       C78      C79      N80      N81      C82      C83      C84
  grid # 1       96       96      112       97       93       93       93
  grid # 2      330      336      425      324      325      333      332
  grid # 3       29       28      117       13       20       34       27
  grid # 4    48124    48124    47928    47928    48124    48124    48124
   
  number of gridpoints: 
     atom       C85      H86      H87      H88      H89      H90      H91
  grid # 1       93      112      118      118      110      118      114
  grid # 2      325      433      451      446      424      453      434
  grid # 3       16      225      417      360      176      425      233
  grid # 4    48124    48426    48426    48426    48426    48426    48426
   
  number of gridpoints: 
     atom       H92      H93      H94      H95      H96      H97      H98
  grid # 1      113      118      118      118      112      112      107
  grid # 2      429      443      449      450      435      436      420
  grid # 3      214      360      408      417      241      261      122
  grid # 4    48426    48426    48426    48426    48426    48426    48426
   
  number of gridpoints: 
     atom       H99     H100     H101     H102     H103     H104     H105
  grid # 1      113      112      109      108      112      111      110
  grid # 2      434      433      423      420      431      430      425
  grid # 3      247      244      170      128      232      226      189
  grid # 4    48426    48426    48426    48426    48426    48426    48426
   
  number of gridpoints: 
     atom      H106     H107     H108     H109     H110     H111     H112
  grid # 1      111      108      118      118      118      112      112
  grid # 2      428      416      453      453      452      434      428
  grid # 3      203      104      420      425      420      245      192
  grid # 4    48426    48426    48426    48426    48426    48426    48426
   
  number of gridpoints: 
     atom      H113     H114     H115     H116     H117     H118     H119
  grid # 1      117      115      117      113      115      117      117
  grid # 2      443      445      449      440      442      448      451
  grid # 3      333      333      377      267      309      371      385
  grid # 4    48426    48426    48426    48426    48426    48426    48426
   
  number of gridpoints: 
     atom      H120     H121     H122     H123     H124     H125     H126
  grid # 1      118      118      118      117      117      112      118
  grid # 2      452      453      453      450      444      436      451
  grid # 3      418      424      421      394      336      258      418
  grid # 4    48426    48426    48426    48426    48426    48426    48426
   
  number of gridpoints: 
     atom      H127     H128     H129     H130     H131     H132     H133
  grid # 1      114      105      107      110      106      108      115
  grid # 2      440      405      414      433      424      425      445
  grid # 3      338       53       87      243      215      168      319
  grid # 4    48426    48426    48426    48426    48426    48426    48426
   
  number of gridpoints: 
     atom      H134     H135     H136     H137     H138     H139     H140
  grid # 1      117      117      102      113      118      115      107
  grid # 2      451      453      403      443      459      450      426
  grid # 3      399      436       62      270      462      347      122
  grid # 4    48426    48426    48426    48426    48426    48426    48426
   
  number of gridpoints: 
     atom      S141     O142     C143     O144     F145     F146     F147
  grid # 1      436      115       89      117      517      522      520
  grid # 2      436      445      321      470      517      522      520
  grid # 3        8       34        6       71       94      147      131
  grid # 4    48492    47716    48124    47716    47062    47062    47062
   
  number of gridpoints: 
     atom      H148    total
  grid # 1       98    18373
  grid # 2      393    57846
  grid # 3       72    19132
  grid # 4    48426  7104526
   
  Peak memory usage:    795 Mb
  
  end of program grid
   
 Time(grid)  user:     1136.3  user+sys:     1136.3  wallclock:     1210.6
  
  start of program rwr
  
  Peak memory usage:    814 Mb
  
  end of program rwr
   
 Time(rwr)  user:       71.5  user+sys:       71.5  wallclock:       79.1
  
  start of program scf
  
 number of electrons..........        680
 number of alpha electrons....        340
 number of beta electrons.....        340
 number of orbitals, total....       1673
 number of doubly-occ'd orbs..        340
 number of open shell orbs....          0
 number of occupied orbitals..        340
 number of virtual orbitals...       1333
 number of hamiltonians.......          1
 number of shells.............          1
 SCF type: DFT=M06-2X
 Energy computed with NOPS off.
  
       i  u  d  i  g                   
       t  p  i  c  r                                 RMS    maximum
       e  d  i  u  i                       energy  density   DIIS  
       r  t  s  t  d       total energy    change  change    error 
  
etot    1  N  N  1  U   -5562.74655603578           3.7E-03  1.2E-01
etot    2  N  Y  1  U   -5533.25494945317 -2.9E+01  1.5E-02  1.2E-01
etot    3  N  Y  1  U   -5359.30042037684 -1.7E+02  1.4E-02  3.8E-01
etot    4  N  Y  1  U   -5570.80959450795  2.1E+02  5.6E-03  6.1E-02
etot    5  N  Y  1  U   -5543.23411104800 -2.8E+01  5.1E-03  1.4E-01
etot    6  N  Y  1  U   -5575.08681198400  3.2E+01  6.4E-04  3.1E-02
etot    7  N  Y  1  U   -5575.43337535594  3.5E-01  2.8E-04  1.5E-02
etot    8  N  Y  1  U   -5575.53937981350  1.1E-01  9.8E-05  4.8E-03
etot    9  N  Y  1  U   -5575.55659479063  1.7E-02  5.1E-05  2.2E-03
etot   10  N  Y  1  U   -5575.56048265460  3.9E-03  2.7E-05  1.2E-03
etot   11  N  Y  1  U   -5575.56151051078  1.0E-03  1.4E-05  4.5E-04
etot   12  N  Y  1  U   -5575.56176509767  2.5E-04  4.8E-06  2.2E-04
etot   13  N  N  1  U   -5575.56179603942  3.1E-05  0.0E+00  0.0E+00
  
  
 Energy components, in hartrees:
   (A)  Nuclear repulsion............   20803.88940523974
   (E)  Total one-electron terms.....  -49134.81662937145
   (F)    Electron-nuclear...........  -54670.80839988045
   (H)    Kinetic....................    5535.99177050899
   (I)  Total two-electron terms.....   22755.36542809229
   (J)    Coulomb....................   23406.58310487383
   (K)    Exchange+Correlation.......    -651.21767678154
   (L)  Electronic energy............  -26379.45120127916  (E+I)
   (M)  -V/T.........................       2.00714777535  (-(A+F+I)/H)
   (N)  Total energy.................   -5575.56179603942  (A+L)
   (O)  Gas phase energy.............   -5575.56179603942
  
 SCFE: SCF energy: DFT(m06-2x)     -5575.56179603942 hartrees   iterations:  13
  
 
 HOMO energy:    -0.22695
 LUMO energy:    -0.09138
 
  Orbital energies (hartrees): 
   -90.20058   -90.16088   -78.20791   -67.00914   -66.99854   -25.29791
   -25.29245   -25.29058   -19.68770   -19.68731   -19.68719   -19.68274
   -19.64464   -19.62976   -19.60054   -14.87481   -14.81355   -14.76312
   -14.74201   -10.80963   -10.69043   -10.65804   -10.62956   -10.62526
   -10.61907   -10.61075   -10.60882   -10.60454   -10.60400   -10.59978
   -10.59026   -10.58791   -10.58316   -10.57161   -10.57008   -10.56923
   -10.56725   -10.56493   -10.56209   -10.55915   -10.55848   -10.55518
   -10.55380   -10.55366   -10.55317   -10.55314   -10.55265   -10.55226
   -10.55216   -10.55197   -10.55191   -10.55169   -10.55127   -10.55083
   -10.55078   -10.55056   -10.55028   -10.55009   -10.54874   -10.54865
   -10.54821   -10.54775   -10.54769   -10.54584   -10.54369   -10.54271
   -10.54137   -10.54132   -10.54015   -10.53986   -10.53846   -10.53522
   -10.53419   -10.53370   -10.53328   -10.53327   -10.53310   -10.53183
   -10.53171   -10.53106   -10.53006   -10.52958   -10.52918   -10.52781
   -10.52692   -10.52535   -10.52480   -10.52421   -10.51672   -10.51651
   -10.49801   -10.49417    -8.51216    -8.46894    -6.98734    -6.43470
    -6.43304    -6.43205    -6.39109    -6.39034    -6.39030    -5.54061
    -5.52951    -5.10591    -5.10469    -5.10323    -3.85039    -3.85005
    -3.84989    -3.83938    -3.83891    -3.83882    -1.46001    -1.36986
    -1.36731    -1.27799    -1.22936    -1.22121    -1.18335    -1.16814
    -1.11829    -1.10684    -1.10641    -1.08423    -1.04138    -0.99507
    -0.99447    -0.98074    -0.96570    -0.94747    -0.94693    -0.94283
    -0.94085    -0.93457    -0.92500    -0.92313    -0.92221    -0.92106
    -0.90909    -0.90172    -0.88846    -0.87432    -0.85238    -0.84598
    -0.83895    -0.83848    -0.83494    -0.83413    -0.83323    -0.82969
    -0.82904    -0.82807    -0.82686    -0.82642    -0.82608    -0.82541
    -0.82379    -0.81641    -0.81413    -0.81283    -0.80872    -0.79936
    -0.78544    -0.77327    -0.76457    -0.76081    -0.74100    -0.72966
    -0.72062    -0.71188    -0.70812    -0.70328    -0.69832    -0.68847
    -0.68691    -0.68321    -0.68162    -0.67979    -0.67897    -0.67352
    -0.67263    -0.67192    -0.66968    -0.66560    -0.66454    -0.66295
    -0.65814    -0.65267    -0.65196    -0.64901    -0.64693    -0.64299
    -0.63812    -0.63503    -0.62577    -0.62412    -0.60843    -0.60504
    -0.60463    -0.59918    -0.59826    -0.59523    -0.59304    -0.58905
    -0.58362    -0.58237    -0.58103    -0.57960    -0.57451    -0.56759
    -0.56702    -0.56533    -0.56428    -0.56203    -0.56030    -0.55827
    -0.55607    -0.54712    -0.54631    -0.54265    -0.53760    -0.53323
    -0.53065    -0.52994    -0.52637    -0.52600    -0.52355    -0.52182
    -0.52078    -0.52056    -0.51870    -0.51414    -0.51256    -0.51094
    -0.50792    -0.50693    -0.50613    -0.50494    -0.50403    -0.50325
    -0.50077    -0.49938    -0.49837    -0.49634    -0.49470    -0.49293
    -0.49038    -0.48582    -0.48528    -0.48462    -0.48328    -0.48291
    -0.48145    -0.48139    -0.48022    -0.47808    -0.47402    -0.46897
    -0.46591    -0.46485    -0.46148    -0.45941    -0.45650    -0.45562
    -0.45342    -0.45283    -0.44898    -0.44748    -0.44547    -0.44318
    -0.44112    -0.43792    -0.43594    -0.43311    -0.43239    -0.43038
    -0.42900    -0.42646    -0.42545    -0.42332    -0.42173    -0.41986
    -0.41719    -0.41656    -0.41569    -0.41563    -0.41225    -0.40592
    -0.40415    -0.40156    -0.39862    -0.39738    -0.39583    -0.39482
    -0.39464    -0.39232    -0.39089    -0.38805    -0.38475    -0.38406
    -0.38224    -0.37892    -0.37752    -0.37308    -0.37175    -0.37045
    -0.37037    -0.36766    -0.36527    -0.36197    -0.35289    -0.34840
    -0.34490    -0.34468    -0.33897    -0.33859    -0.33309    -0.33304
    -0.33046    -0.32841    -0.32697    -0.32401    -0.30827    -0.30419
    -0.29735    -0.29630    -0.29470    -0.29288    -0.29230    -0.29076
    -0.28774    -0.28210    -0.28209    -0.27925    -0.27707    -0.27488
    -0.27205    -0.25992    -0.25156    -0.22695    -0.09138    -0.04428
    -0.02437    -0.01843     0.00003     0.00492     0.01184     0.01889
     0.02222     0.02334
 
  Peak memory usage:   1028 Mb
  
  end of program scf
   
 Time(scf)  user:    32968.7  user+sys:    32968.7  wallclock:    33895.9
  
  start of program ch
  
  gridpoints used for charge fit        16481
    out of a possible maximum of        19132
  
   Electrostatic potential fitting constrained to reproduce
     total charge:                yes
     dipole moment:               no 
     traceless quadrupole moment: no 
     traceless octapole moment:   no 
  
  Atomic charges from electrostatic potential: 
   
 Atom       C1           C2           C3           C4           C5      
 Charge   -0.07410     -0.04699     -0.18313      0.21426      0.07985
   
 Atom       C6           C7           C8           C9           C10     
 Charge   -0.22540     -0.38594     -0.10860     -0.07690     -0.21621
   
 Atom       C11          O12          Si13         C14          C15     
 Charge    0.22358     -0.28353     -0.17934      0.27671      0.22571
   
 Atom       C16          C17          C18          C19          C20     
 Charge    0.21073     -0.30406     -0.40280     -0.24541     -0.07220
   
 Atom       Si21         O22          C23          C24          P25     
 Charge    0.19699     -0.26953     -0.09644     -0.14671      1.09685
   
 Atom       O26          N27          C28          C29          C30     
 Charge   -0.59976     -0.62346      0.13279      0.17207      0.21171
   
 Atom       C31          C32          C33          C34          C35     
 Charge   -0.04584     -0.09362      0.01300     -0.14688     -0.18752
   
 Atom       C36          C37          C38          C39          C40     
 Charge   -0.22018     -0.12724     -0.22220     -0.17191     -0.10427
   
 Atom       C41          C42          C43          C44          C45     
 Charge    0.01131     -0.00261     -0.09164     -0.19589     -0.09816
   
 Atom       C46          C47          C48          C49          C50     
 Charge   -0.13943     -0.14200     -0.11332     -0.11009     -0.10760
   
 Atom       C51          C52          C53          C54          C55     
 Charge   -0.14598     -0.11795     -0.18152     -0.06996     -0.18980
   
 Atom       C56          C57          C58          C59          C60     
 Charge   -0.07396     -0.21816     -0.19995     -0.09618     -0.15355
   
 Atom       C61          C62          C63          C64          C65     
 Charge   -0.10952     -0.13151     -0.11174     -0.12579     -0.17699
   
 Atom       C66          C67          C68          C69          C70     
 Charge    0.00031      0.07017     -0.05517     -0.09038      0.10594
   
 Atom       N71          S72          O73          O74          C75     
 Charge   -0.21437      0.75985     -0.38939     -0.41241      0.56740
   
 Atom       C76          C77          C78          C79          N80     
 Charge   -0.51118      0.29881     -0.53303      0.49989     -0.66266
   
 Atom       N81          C82          C83          C84          C85     
 Charge    0.21063     -0.28857     -0.26550     -0.20334     -0.22288
   
 Atom       H86          H87          H88          H89          H90     
 Charge    0.09639      0.14756      0.14390      0.17130      0.13343
   
 Atom       H91          H92          H93          H94          H95     
 Charge    0.16030      0.20535      0.15837      0.13381      0.13700
   
 Atom       H96          H97          H98          H99          H100    
 Charge    0.10436      0.13379      0.12862      0.11386      0.13304
   
 Atom       H101         H102         H103         H104         H105    
 Charge    0.10299      0.12811      0.07654      0.06366      0.11303
   
 Atom       H106         H107         H108         H109         H110    
 Charge    0.13431      0.07923      0.13374      0.13255      0.12680
   
 Atom       H111         H112         H113         H114         H115    
 Charge    0.10585      0.07989      0.12252      0.12381      0.13929
   
 Atom       H116         H117         H118         H119         H120    
 Charge    0.11707      0.15444      0.12042      0.13962      0.14100
   
 Atom       H121         H122         H123         H124         H125    
 Charge    0.12141      0.12526      0.11637      0.11788      0.10341
   
 Atom       H126         H127         H128         H129         H130    
 Charge    0.14903      0.15908      0.07027      0.11656      0.12890
   
 Atom       H131         H132         H133         H134         H135    
 Charge    0.16639      0.21640      0.09829      0.21394      0.04584
   
 Atom       H136         H137         H138         H139         H140    
 Charge    0.13786      0.16429      0.16734      0.14759      0.17328
   
 Atom       S141         O142         C143         O144         F145    
 Charge    0.65348     -0.43853      0.38567     -0.41902     -0.09795
   
 Atom       F146         F147         H148    
 Charge   -0.11429     -0.15377      0.24285
  
  sum of atomic charges:    -0.000000
   
 RMS Error   1.04E-03 hartrees
 
  Peak memory usage:    816 Mb
  
  end of program ch
   
 Time(ch)  user:       18.5  user+sys:       18.5  wallclock:       21.4
  
  start of program post
  
  Writing input files for PBF
  Peak memory usage:    759 Mb
  
  end of program post
   
 Time(post)  user:        0.8  user+sys:        0.8  wallclock:        1.0

  start of program pbf

Pbf Version 4.10

Molecular surface area:      836.18040   [A2]
Reaction field energy:       -19.94114   [kT]
  Peak memory usage: 721 Mb

  end of program pbf

 Time(pbf)  user:        9.4  user+sys:        9.5  wallclock:        9.5
  
  start of program solv
  
   number of surface charges from PBF   13558
   sum of surface charges     -0.00032
   
  nuclear repulsion energy.......   20803.889405240 hartrees
  Peak memory usage:    894 Mb
  
  end of program solv
   
 Time(solv)  user:       36.2  user+sys:       36.2  wallclock:       36.4
  
  start of program scf
  
 Energy computed with NOPS off.
  
       i  u  d  i  g                   
       t  p  i  c  r                                 RMS    maximum
       e  d  i  u  i                       energy  density   DIIS  
       r  t  s  t  d       total energy    change  change    error 
  
etot    1  N  N  1  U   -5575.60269585997           5.8E-05  9.8E-04
etot    2  N  Y  1  U   -5575.60364183785  9.5E-04  1.7E-05  7.2E-04
etot    3  N  Y  1  U   -5575.60395481017  3.1E-04  5.4E-06  3.1E-04
etot    4  N  Y  1  U   -5575.60400790755  5.3E-05  2.3E-06  1.4E-04
etot    5  N  N  1  U   -5575.60401356689  5.7E-06  0.0E+00  0.0E+00
  
  
 Energy components, in hartrees:
   (A)  Total zero-electron terms....   20806.46224700956
   (B)    Nuclear-nuclear............   20803.88940523974
   (C)    Nuclear-solvent............       2.57284176981
   (E)  Total one-electron terms.....  -49138.93754597717
   (F)    Electron-nuclear...........  -54672.36572265049
   (G)    Electron-solvent...........      -2.61634196930
   (H)    Kinetic....................    5536.04451864261
   (I)  Total two-electron terms.....   22756.87128540072
   (J)    Coulomb....................   23408.11101745870
   (K)    Exchange+Correlation.......    -651.23973205798
   (L)  Electronic energy............  -26382.06626057645  (E+I)
   (N)  Total quantum mech. energy...   -5575.60401356689  (A+L)
   (O)  Gas phase energy.............   -5575.56179603942
   (P)  Solution phase energy........   -5575.58226346715  (Q+R+S)
   (Q)    Total solute energy........   -5575.56051336741  (N-C-G)
   (R)    Total solvent energy.......      -0.02175009974  (C/2+G/2)
   (S)    Solute cavity energy.......       0.00000000000
   (U)  Reorganization energy........       0.00128267201  (Q-O)
   (V)  Solvation energy.............      -0.02046742773  (P-O)
  
 SCFE:  Solution phase energy: DFT(m06-2x)      -5575.58226346715 hartrees
        SCF iterations:   5
  
 
 HOMO energy:    -0.23341
 LUMO energy:    -0.08775
 
  Orbital energies (hartrees): 
   -90.20238   -90.16364   -78.21055   -67.01045   -67.00342   -25.29975
   -25.29526   -25.29434   -19.69027   -19.68901   -19.68874   -19.68500
   -19.64510   -19.63260   -19.60265   -14.87264   -14.81019   -14.76907
   -14.74511   -10.81232   -10.68699   -10.65546   -10.62722   -10.62326
   -10.62195   -10.60370   -10.60277   -10.60001   -10.59667   -10.59385
   -10.58568   -10.58428   -10.57700   -10.57327   -10.57129   -10.56994
   -10.56743   -10.56645   -10.56386   -10.56121   -10.56118   -10.55806
   -10.55483   -10.55473   -10.55411   -10.55362   -10.55312   -10.55308
   -10.55274   -10.55270   -10.55233   -10.55218   -10.55203   -10.55144
   -10.55109   -10.55077   -10.55006   -10.54982   -10.54943   -10.54885
   -10.54846   -10.54790   -10.54781   -10.54626   -10.54583   -10.54576
   -10.54498   -10.54463   -10.54430   -10.54389   -10.54284   -10.53939
   -10.53860   -10.53778   -10.53751   -10.53678   -10.53646   -10.53619
   -10.53569   -10.53493   -10.53441   -10.53379   -10.53339   -10.53315
   -10.53252   -10.53093   -10.53052   -10.52915   -10.52185   -10.52179
   -10.50420   -10.50057    -8.51382    -8.47166    -6.98996    -6.43632
    -6.43480    -6.43368    -6.39381    -6.39308    -6.39304    -5.54191
    -5.53437    -5.10853    -5.10731    -5.10584    -3.85169    -3.85135
    -3.85118    -3.84422    -3.84378    -3.84369    -1.46255    -1.37181
    -1.37046    -1.27993    -1.23182    -1.22367    -1.18570    -1.17069
    -1.11742    -1.10787    -1.10265    -1.08644    -1.04727    -0.99741
    -0.99061    -0.98299    -0.96797    -0.94838    -0.94320    -0.94130
    -0.94061    -0.93968    -0.93048    -0.92785    -0.92295    -0.91918
    -0.91122    -0.89722    -0.89080    -0.86974    -0.85421    -0.84679
    -0.84149    -0.83925    -0.83674    -0.83529    -0.83387    -0.83307
    -0.83159    -0.83025    -0.82925    -0.82812    -0.82690    -0.82657
    -0.82608    -0.82180    -0.81963    -0.81785    -0.81413    -0.80153
    -0.78193    -0.77937    -0.76667    -0.75469    -0.73878    -0.73035
    -0.71663    -0.71099    -0.70747    -0.70505    -0.69998    -0.69116
    -0.68877    -0.68594    -0.68336    -0.68032    -0.67947    -0.67442
    -0.67375    -0.67234    -0.66951    -0.66842    -0.66573    -0.66313
    -0.66288    -0.65771    -0.65604    -0.65122    -0.64831    -0.64539
    -0.63816    -0.63416    -0.63122    -0.62627    -0.61137    -0.60915
    -0.60091    -0.60066    -0.59963    -0.59731    -0.58886    -0.58821
    -0.58587    -0.58384    -0.58173    -0.58045    -0.57612    -0.57178
    -0.56854    -0.56651    -0.56628    -0.56394    -0.56078    -0.56010
    -0.55213    -0.54805    -0.54782    -0.54370    -0.53774    -0.53570
    -0.53186    -0.53016    -0.52763    -0.52628    -0.52410    -0.52113
    -0.52085    -0.51852    -0.51760    -0.51499    -0.51029    -0.50916
    -0.50858    -0.50780    -0.50621    -0.50496    -0.50421    -0.50375
    -0.50235    -0.50082    -0.49922    -0.49738    -0.49684    -0.49483
    -0.49355    -0.48985    -0.48662    -0.48612    -0.48521    -0.48481
    -0.48262    -0.48237    -0.48009    -0.47811    -0.47649    -0.47092
    -0.47031    -0.46877    -0.46515    -0.46237    -0.45863    -0.45652
    -0.45409    -0.45360    -0.45189    -0.45013    -0.44821    -0.44542
    -0.44289    -0.44148    -0.43778    -0.43733    -0.43314    -0.43189
    -0.42911    -0.42861    -0.42604    -0.42429    -0.42303    -0.42208
    -0.42169    -0.41936    -0.41784    -0.41598    -0.41520    -0.41013
    -0.40817    -0.40394    -0.40227    -0.40108    -0.39913    -0.39628
    -0.39484    -0.39239    -0.39108    -0.39008    -0.38811    -0.38485
    -0.38164    -0.38004    -0.37892    -0.37686    -0.37585    -0.37484
    -0.37029    -0.36776    -0.36737    -0.35747    -0.35504    -0.35120
    -0.34646    -0.34564    -0.34013    -0.33679    -0.33534    -0.33401
    -0.33264    -0.33052    -0.32930    -0.32640    -0.30938    -0.30571
    -0.29821    -0.29800    -0.29705    -0.29625    -0.29536    -0.29328
    -0.28959    -0.28796    -0.28544    -0.28518    -0.28304    -0.28022
    -0.27457    -0.26675    -0.25408    -0.23341    -0.08775    -0.04005
    -0.02099    -0.01843    -0.00214     0.00885     0.00973     0.01692
     0.02074     0.02194
 
  Peak memory usage:   1029 Mb
  
  end of program scf
   
 Time(scf)  user:    10393.3  user+sys:    10393.3  wallclock:    10679.7
  
  start of program sole
  
    SCRF                   solvation energy
  iteration          Hartrees            kcal/mol
     0               0.0000000            0.0000
     1              -0.0204674          -12.8435
  
  solvation energy not yet converged... 
  
  Peak memory usage:    813 Mb
  
  end of program sole
   
 Time(sole)  user:        0.1  user+sys:        0.1  wallclock:        0.2
  
  start of program ch
  
  gridpoints used for charge fit        16481
    out of a possible maximum of        16481
  
   Electrostatic potential fitting constrained to reproduce
     total charge:                yes
     dipole moment:               no 
     traceless quadrupole moment: no 
     traceless octapole moment:   no 
  
  Atomic charges from electrostatic potential: 
   
 Atom       C1           C2           C3           C4           C5      
 Charge   -0.07490     -0.05053     -0.19257      0.21908      0.08451
   
 Atom       C6           C7           C8           C9           C10     
 Charge   -0.23486     -0.40520     -0.11483     -0.10051     -0.21243
   
 Atom       C11          O12          Si13         C14          C15     
 Charge    0.25243     -0.27012     -0.20732      0.28392      0.19554
   
 Atom       C16          C17          C18          C19          C20     
 Charge    0.20932     -0.31029     -0.41637     -0.25051     -0.04335
   
 Atom       Si21         O22          C23          C24          P25     
 Charge    0.17948     -0.24114     -0.10037     -0.15470      1.06515
   
 Atom       O26          N27          C28          C29          C30     
 Charge   -0.58543     -0.61338      0.13577      0.19034      0.21858
   
 Atom       C31          C32          C33          C34          C35     
 Charge   -0.03285     -0.10142      0.01859     -0.14835     -0.19119
   
 Atom       C36          C37          C38          C39          C40     
 Charge   -0.23349     -0.13094     -0.22411     -0.17331     -0.12023
   
 Atom       C41          C42          C43          C44          C45     
 Charge    0.01124     -0.00074     -0.09177     -0.21355     -0.11131
   
 Atom       C46          C47          C48          C49          C50     
 Charge   -0.15018     -0.14885     -0.12046     -0.12291     -0.11065
   
 Atom       C51          C52          C53          C54          C55     
 Charge   -0.15178     -0.12848     -0.18563     -0.08625     -0.19172
   
 Atom       C56          C57          C58          C59          C60     
 Charge   -0.08430     -0.22482     -0.21056     -0.10146     -0.16177
   
 Atom       C61          C62          C63          C64          C65     
 Charge   -0.11208     -0.14152     -0.10919     -0.13041     -0.17697
   
 Atom       C66          C67          C68          C69          C70     
 Charge    0.00279      0.06760     -0.06438     -0.09090      0.10321
   
 Atom       N71          S72          O73          O74          C75     
 Charge   -0.22346      0.78624     -0.41344     -0.43384      0.58550
   
 Atom       C76          C77          C78          C79          N80     
 Charge   -0.52186      0.30350     -0.53259      0.51363     -0.69663
   
 Atom       N81          C82          C83          C84          C85     
 Charge    0.22431     -0.29590     -0.28091     -0.21417     -0.21554
   
 Atom       H86          H87          H88          H89          H90     
 Charge    0.09747      0.15661      0.15182      0.17764      0.14231
   
 Atom       H91          H92          H93          H94          H95     
 Charge    0.16323      0.21301      0.16504      0.14146      0.14503
   
 Atom       H96          H97          H98          H99          H100    
 Charge    0.10413      0.13805      0.13583      0.11519      0.13665
   
 Atom       H101         H102         H103         H104         H105    
 Charge    0.10207      0.13073      0.07870      0.06287      0.11598
   
 Atom       H106         H107         H108         H109         H110    
 Charge    0.14232      0.07832      0.14259      0.14086      0.13473
   
 Atom       H111         H112         H113         H114         H115    
 Charge    0.11683      0.08257      0.12808      0.13357      0.14768
   
 Atom       H116         H117         H118         H119         H120    
 Charge    0.12673      0.15700      0.12855      0.14566      0.14983
   
 Atom       H121         H122         H123         H124         H125    
 Charge    0.12959      0.13328      0.12395      0.12562      0.10544
   
 Atom       H126         H127         H128         H129         H130    
 Charge    0.15813      0.17122      0.06729      0.12073      0.13596
   
 Atom       H131         H132         H133         H134         H135    
 Charge    0.18017      0.21794      0.10565      0.22338      0.05473
   
 Atom       H136         H137         H138         H139         H140    
 Charge    0.13290      0.17174      0.17243      0.15058      0.17361
   
 Atom       S141         O142         C143         O144         F145    
 Charge    0.64760     -0.42922      0.38626     -0.42636     -0.09694
   
 Atom       F146         F147         H148    
 Charge   -0.11592     -0.15297      0.23905
  
  sum of atomic charges:    -0.000000
   
 RMS Error   1.05E-03 hartrees
 
  Peak memory usage:    816 Mb
  
  end of program ch
   
 Time(ch)  user:       18.4  user+sys:       18.4  wallclock:       19.9
  
  start of program post
  
  Writing input files for PBF
  Peak memory usage:    759 Mb
  
  end of program post
   
 Time(post)  user:        0.8  user+sys:        0.8  wallclock:        1.0

  start of program pbf

Pbf Version 4.10

Molecular surface area:      836.18040   [A2]
Reaction field energy:       -23.00121   [kT]
  Peak memory usage: 721 Mb

  end of program pbf

 Time(pbf)  user:        9.9  user+sys:       10.0  wallclock:       10.0
  
  start of program solv
  
   number of surface charges from PBF   13558
   sum of surface charges     -0.00033
   
  nuclear repulsion energy.......   20803.889405240 hartrees
  Peak memory usage:    894 Mb
  
  end of program solv
   
 Time(solv)  user:       36.6  user+sys:       36.6  wallclock:       36.8
  
  start of program scf
  
 Energy computed with NOPS off.
  
       i  u  d  i  g                   
       t  p  i  c  r                                 RMS    maximum
       e  d  i  u  i                       energy  density   DIIS  
       r  t  s  t  d       total energy    change  change    error 
  
etot    1  N  N  1  U   -5575.60722387349           6.7E-06  1.4E-04
etot    2  N  N  1  U   -5575.60722984430  6.0E-06  0.0E+00  0.0E+00
  
  
 Energy components, in hartrees:
   (A)  Total zero-electron terms....   20806.74770905307
   (B)    Nuclear-nuclear............   20803.88940523974
   (C)    Nuclear-solvent............       2.85830381333
   (E)  Total one-electron terms.....  -49139.60752987763
   (F)    Electron-nuclear...........  -54672.75401932200
   (G)    Electron-solvent...........      -2.90539048925
   (H)    Kinetic....................    5536.05187993362
   (I)  Total two-electron terms.....   22757.25259098026
   (J)    Coulomb....................   23408.49402417183
   (K)    Exchange+Correlation.......    -651.24143319157
   (L)  Electronic energy............  -26382.35493889737  (E+I)
   (N)  Total quantum mech. energy...   -5575.60722984430  (A+L)
   (O)  Gas phase energy.............   -5575.56179603942
   (P)  Solution phase energy........   -5575.58368650634  (Q+R+S)
   (Q)    Total solute energy........   -5575.56014316838  (N-C-G)
   (R)    Total solvent energy.......      -0.02354333796  (C/2+G/2)
   (S)    Solute cavity energy.......       0.00000000000
   (U)  Reorganization energy........       0.00165287104  (Q-O)
   (V)  Solvation energy.............      -0.02189046692  (P-O)
  
 SCFE:  Solution phase energy: DFT(m06-2x)      -5575.58368650634 hartrees
        SCF iterations:   2
  
 
 HOMO energy:    -0.26488
 LUMO energy:    -0.08724
 
  Orbital energies (hartrees): 
   -66.09184   -59.69416   -55.10621   -37.75980   -35.93895   -33.96497
   -33.34138   -32.56814   -30.41349   -26.97208   -23.92585   -22.26821
   -18.57154   -18.35430   -18.24712   -18.23415   -18.18102   -17.58986
   -16.63902   -16.59659   -16.23596   -16.14790   -15.51128   -15.36240
   -15.09339   -14.27947   -14.16473   -13.23389   -13.22282   -13.14153
   -12.79907   -12.33420   -12.08111   -11.86633   -11.70678   -11.39208
   -11.38429   -11.37678   -11.17373   -11.16348   -10.91580   -10.90265
   -10.84383   -10.76851   -10.76670   -10.76222   -10.75799   -10.74992
   -10.71004   -10.70206   -10.67245   -10.66997   -10.65982   -10.64377
   -10.63954   -10.63733   -10.63613   -10.60919   -10.60005   -10.58542
   -10.57845   -10.57687   -10.55691   -10.52680   -10.47809   -10.47309
   -10.47054   -10.46479   -10.42366   -10.42225   -10.40610   -10.37503
   -10.36040   -10.34559   -10.31972   -10.29501   -10.26869   -10.23150
   -10.23016   -10.15554   -10.15469   -10.15465   -10.11327   -10.01586
    -9.97031    -9.96520    -9.93129    -9.83450    -9.82983    -9.82168
    -9.75922    -9.65456    -9.54553    -9.49380    -9.37271    -9.05087
    -8.68809    -7.97012    -7.29764    -7.26103    -7.02695    -6.85561
    -6.83108    -6.81977    -6.28372    -6.28354    -6.05578    -5.69474
    -5.59082    -5.36801    -5.07092    -4.72449    -1.42981    -1.38460
    -1.38075    -1.17462    -1.17334    -1.12128    -1.10837    -1.10397
    -1.09686    -1.05313    -1.03219    -0.99126    -0.95209    -0.91930
    -0.91761    -0.91561    -0.91280    -0.90994    -0.90974    -0.90223
    -0.88502    -0.87434    -0.86990    -0.86706    -0.86611    -0.85320
    -0.84253    -0.82506    -0.82153    -0.81969    -0.81180    -0.80879
    -0.80409    -0.80395    -0.80156    -0.80067    -0.79105    -0.79086
    -0.78944    -0.78814    -0.78698    -0.78436    -0.78385    -0.76978
    -0.76536    -0.76318    -0.75484    -0.75149    -0.74765    -0.74715
    -0.74610    -0.74530    -0.74106    -0.73364    -0.72601    -0.71966
    -0.71955    -0.71531    -0.71173    -0.70997    -0.70952    -0.70185
    -0.69909    -0.69842    -0.69194    -0.68523    -0.68082    -0.67986
    -0.67795    -0.67527    -0.66889    -0.66871    -0.66265    -0.65575
    -0.65361    -0.65354    -0.64886    -0.64412    -0.64188    -0.63653
    -0.63540    -0.63479    -0.62989    -0.62850    -0.62748    -0.62532
    -0.61896    -0.61592    -0.60658    -0.60506    -0.59855    -0.59697
    -0.59550    -0.59185    -0.59182    -0.58485    -0.58202    -0.57948
    -0.57840    -0.57541    -0.57416    -0.57371    -0.57229    -0.57211
    -0.56530    -0.56387    -0.56267    -0.56061    -0.55445    -0.55362
    -0.55117    -0.54940    -0.54911    -0.54737    -0.54641    -0.54594
    -0.54411    -0.54243    -0.54085    -0.53649    -0.53609    -0.53234
    -0.52646    -0.52639    -0.52275    -0.52214    -0.52198    -0.52079
    -0.51978    -0.51586    -0.51405    -0.51352    -0.51244    -0.51217
    -0.51187    -0.51100    -0.51092    -0.50964    -0.50402    -0.50280
    -0.50114    -0.50102    -0.49866    -0.49829    -0.49800    -0.49792
    -0.49719    -0.49483    -0.49476    -0.49374    -0.49309    -0.49012
    -0.48427    -0.48313    -0.48156    -0.47899    -0.47786    -0.47679
    -0.47523    -0.47394    -0.47179    -0.46989    -0.46824    -0.46535
    -0.46450    -0.46428    -0.46278    -0.46108    -0.46070    -0.45456
    -0.45284    -0.45200    -0.45146    -0.44896    -0.44638    -0.44587
    -0.44495    -0.44188    -0.44139    -0.44134    -0.44096    -0.43998
    -0.43870    -0.43611    -0.43489    -0.43306    -0.43255    -0.42914
    -0.42539    -0.42404    -0.42195    -0.41803    -0.41651    -0.41471
    -0.41422    -0.40904    -0.40420    -0.40407    -0.40399    -0.40290
    -0.39495    -0.39305    -0.38950    -0.38641    -0.38432    -0.38341
    -0.37846    -0.37765    -0.37565    -0.36912    -0.36251    -0.36194
    -0.35945    -0.35259    -0.34962    -0.34954    -0.34303    -0.33767
    -0.33164    -0.30994    -0.30338    -0.29988    -0.29841    -0.29782
    -0.29701    -0.29644    -0.28737    -0.26488    -0.08724    -0.03958
    -0.02085    -0.01795    -0.00210     0.00927     0.00989     0.01714
     0.02081     0.02213
 
  Peak memory usage:   1029 Mb
  
  end of program scf
   
 Time(scf)  user:     2633.0  user+sys:     2633.0  wallclock:     2708.1
  
  start of program sole
  
    SCRF                   solvation energy
  iteration          Hartrees            kcal/mol
     0               0.0000000            0.0000
     1              -0.0204674          -12.8435
     2              -0.0218905          -13.7365
  
  solvation energy not yet converged... 
  
  Peak memory usage:    813 Mb
  
  end of program sole
   
 Time(sole)  user:        0.2  user+sys:        0.2  wallclock:        0.1
  
  start of program ch
  
  gridpoints used for charge fit        16481
    out of a possible maximum of        16481
  
   Electrostatic potential fitting constrained to reproduce
     total charge:                yes
     dipole moment:               no 
     traceless quadrupole moment: no 
     traceless octapole moment:   no 
  
  Atomic charges from electrostatic potential: 
   
 Atom       C1           C2           C3           C4           C5      
 Charge   -0.07584     -0.05084     -0.19214      0.21924      0.08448
   
 Atom       C6           C7           C8           C9           C10     
 Charge   -0.23561     -0.40595     -0.11439     -0.10254     -0.21194
   
 Atom       C11          O12          Si13         C14          C15     
 Charge    0.25407     -0.26846     -0.21036      0.28535      0.19159
   
 Atom       C16          C17          C18          C19          C20     
 Charge    0.20923     -0.31096     -0.41771     -0.25102     -0.04161
   
 Atom       Si21         O22          C23          C24          P25     
 Charge    0.17698     -0.23824     -0.09933     -0.15373      1.06124
   
 Atom       O26          N27          C28          C29          C30     
 Charge   -0.58346     -0.61307      0.13581      0.19142      0.21771
   
 Atom       C31          C32          C33          C34          C35     
 Charge   -0.03222     -0.10329      0.01693     -0.14878     -0.19178
   
 Atom       C36          C37          C38          C39          C40     
 Charge   -0.23463     -0.13173     -0.22343     -0.17410     -0.12175
   
 Atom       C41          C42          C43          C44          C45     
 Charge    0.01071     -0.00098     -0.09250     -0.21462     -0.11363
   
 Atom       C46          C47          C48          C49          C50     
 Charge   -0.15071     -0.14858     -0.12021     -0.12483     -0.10953
   
 Atom       C51          C52          C53          C54          C55     
 Charge   -0.15129     -0.12858     -0.18519     -0.08745     -0.19179
   
 Atom       C56          C57          C58          C59          C60     
 Charge   -0.08443     -0.22392     -0.21115     -0.10029     -0.16100
   
 Atom       C61          C62          C63          C64          C65     
 Charge   -0.11169     -0.14099     -0.10778     -0.12945     -0.17494
   
 Atom       C66          C67          C68          C69          C70     
 Charge    0.00218      0.06699     -0.06574     -0.09008      0.10120
   
 Atom       N71          S72          O73          O74          C75     
 Charge   -0.22245      0.78476     -0.41632     -0.43353      0.58375
   
 Atom       C76          C77          C78          C79          N80     
 Charge   -0.52270      0.30365     -0.52850      0.51411     -0.69907
   
 Atom       N81          C82          C83          C84          C85     
 Charge    0.22535     -0.29565     -0.28106     -0.21498     -0.21631
   
 Atom       H86          H87          H88          H89          H90     
 Charge    0.09756      0.15714      0.15235      0.17786      0.14292
   
 Atom       H91          H92          H93          H94          H95     
 Charge    0.16336      0.21361      0.16526      0.14185      0.14545
   
 Atom       H96          H97          H98          H99          H100    
 Charge    0.10393      0.13815      0.13657      0.11515      0.13671
   
 Atom       H101         H102         H103         H104         H105    
 Charge    0.10170      0.13076      0.07869      0.06256      0.11618
   
 Atom       H106         H107         H108         H109         H110    
 Charge    0.14287      0.07814      0.14314      0.14141      0.13524
   
 Atom       H111         H112         H113         H114         H115    
 Charge    0.11810      0.08269      0.12848      0.13451      0.14835
   
 Atom       H116         H117         H118         H119         H120    
 Charge    0.12756      0.15682      0.12900      0.14594      0.15043
   
 Atom       H121         H122         H123         H124         H125    
 Charge    0.13014      0.13387      0.12463      0.12621      0.10545
   
 Atom       H126         H127         H128         H129         H130    
 Charge    0.15880      0.17214      0.06657      0.12105      0.13651
   
 Atom       H131         H132         H133         H134         H135    
 Charge    0.18177      0.21754      0.10640      0.22409      0.05591
   
 Atom       H136         H137         H138         H139         H140    
 Charge    0.13249      0.17251      0.17244      0.15047      0.17344
   
 Atom       S141         O142         C143         O144         F145    
 Charge    0.64722     -0.42723      0.38704     -0.42785     -0.09675
   
 Atom       F146         F147         H148    
 Charge   -0.11644     -0.15276      0.23796
  
  sum of atomic charges:    -0.000000
   
 RMS Error   1.05E-03 hartrees
 
  Peak memory usage:    816 Mb
  
  end of program ch
   
 Time(ch)  user:       18.7  user+sys:       18.7  wallclock:       20.3
  
  start of program post
  
  Writing input files for PBF
  Peak memory usage:    759 Mb
  
  end of program post
   
 Time(post)  user:        0.7  user+sys:        0.7  wallclock:        1.0

  start of program pbf

Pbf Version 4.10

Molecular surface area:      836.18040   [A2]
Reaction field energy:       -23.41223   [kT]
  Peak memory usage: 721 Mb

  end of program pbf

 Time(pbf)  user:        9.1  user+sys:        9.2  wallclock:       15.2
  
  start of program solv
  
   number of surface charges from PBF   13558
   sum of surface charges     -0.00034
   
  nuclear repulsion energy.......   20803.889405240 hartrees
  Peak memory usage:    894 Mb
  
  end of program solv
   
 Time(solv)  user:       36.7  user+sys:       36.7  wallclock:       36.9
  
  start of program scf
  
 Energy computed with NOPS off.
  
       i  u  d  i  g                   
       t  p  i  c  r                                 RMS    maximum
       e  d  i  u  i                       energy  density   DIIS  
       r  t  s  t  d       total energy    change  change    error 
  
etot    1  N  N  1  U   -5575.60763830216           5.6E-06  1.6E-04
etot    2  N  N  1  U   -5575.60762278726 -1.6E-05  0.0E+00  0.0E+00
  
  
 Energy components, in hartrees:
   (A)  Total zero-electron terms....   20806.81076055868
   (B)    Nuclear-nuclear............   20803.88940523974
   (C)    Nuclear-solvent............       2.92135531894
   (E)  Total one-electron terms.....  -49139.28156875228
   (F)    Electron-nuclear...........  -54672.35170435773
   (G)    Electron-solvent...........      -2.96872135434
   (H)    Kinetic....................    5536.03885695979
   (I)  Total two-electron terms.....   22756.86318540634
   (J)    Coulomb....................   23408.10333996232
   (K)    Exchange+Correlation.......    -651.24015455599
   (L)  Electronic energy............  -26382.41838334595  (E+I)
   (N)  Total quantum mech. energy...   -5575.60762278726  (A+L)
   (O)  Gas phase energy.............   -5575.56179603942
   (P)  Solution phase energy........   -5575.58393976956  (Q+R+S)
   (Q)    Total solute energy........   -5575.56025675186  (N-C-G)
   (R)    Total solvent energy.......      -0.02368301770  (C/2+G/2)
   (S)    Solute cavity energy.......       0.00000000000
   (U)  Reorganization energy........       0.00153928756  (Q-O)
   (V)  Solvation energy.............      -0.02214373014  (P-O)
  
 SCFE:  Solution phase energy: DFT(m06-2x)      -5575.58393976956 hartrees
        SCF iterations:   2
  
 
 HOMO energy:    -0.23445
 LUMO energy:    -0.08773
 
  Orbital energies (hartrees): 
   -90.20380   -90.16447   -78.21158   -67.01114   -67.00533   -25.29973
   -25.29538   -25.29508   -19.69176   -19.68951   -19.68830   -19.68800
   -19.64463   -19.63486   -19.60290   -14.87430   -14.81106   -14.77023
   -14.74680   -10.81266   -10.68689   -10.65693   -10.62806   -10.62359
   -10.62177   -10.60337   -10.60249   -10.59973   -10.59434   -10.59221
   -10.58497   -10.58451   -10.57524   -10.57385   -10.57198   -10.57002
   -10.56812   -10.56646   -10.56425   -10.56156   -10.56142   -10.55917
   -10.55504   -10.55488   -10.55450   -10.55333   -10.55296   -10.55282
   -10.55270   -10.55259   -10.55218   -10.55205   -10.55190   -10.55144
   -10.55076   -10.55044   -10.54972   -10.54924   -10.54877   -10.54872
   -10.54867   -10.54836   -10.54782   -10.54711   -10.54664   -10.54629
   -10.54553   -10.54548   -10.54482   -10.54406   -10.54330   -10.53975
   -10.53957   -10.53922   -10.53824   -10.53776   -10.53751   -10.53746
   -10.53645   -10.53582   -10.53529   -10.53485   -10.53474   -10.53384
   -10.53332   -10.53273   -10.53201   -10.53116   -10.52418   -10.52393
   -10.50504   -10.50185    -8.51522    -8.47250    -6.99098    -6.43771
    -6.43621    -6.43507    -6.39464    -6.39392    -6.39388    -5.54259
    -5.53625    -5.10954    -5.10833    -5.10686    -3.85237    -3.85203
    -3.85186    -3.84610    -3.84567    -3.84558    -1.46289    -1.37202
    -1.37094    -1.28123    -1.23278    -1.22466    -1.18667    -1.17206
    -1.11824    -1.10869    -1.10285    -1.08711    -1.04834    -0.99851
    -0.99006    -0.98349    -0.96835    -0.94855    -0.94329    -0.94139
    -0.94051    -0.94010    -0.93158    -0.92906    -0.92322    -0.91923
    -0.91161    -0.89680    -0.89138    -0.86916    -0.85446    -0.84701
    -0.84217    -0.83939    -0.83737    -0.83545    -0.83405    -0.83402
    -0.83237    -0.83061    -0.82944    -0.82875    -0.82725    -0.82678
    -0.82625    -0.82285    -0.82086    -0.81886    -0.81542    -0.80199
    -0.78199    -0.78037    -0.76736    -0.75436    -0.73906    -0.73069
    -0.71642    -0.71153    -0.70728    -0.70543    -0.70047    -0.69177
    -0.68908    -0.68636    -0.68379    -0.68045    -0.67961    -0.67518
    -0.67403    -0.67249    -0.66993    -0.66903    -0.66587    -0.66414
    -0.66295    -0.65885    -0.65687    -0.65173    -0.64951    -0.64573
    -0.63838    -0.63474    -0.63223    -0.62686    -0.61242    -0.60944
    -0.60138    -0.60091    -0.59998    -0.59788    -0.58908    -0.58889
    -0.58560    -0.58400    -0.58205    -0.58050    -0.57643    -0.57258
    -0.56894    -0.56746    -0.56675    -0.56438    -0.56099    -0.56047
    -0.55218    -0.54857    -0.54808    -0.54414    -0.53818    -0.53630
    -0.53245    -0.53023    -0.52805    -0.52641    -0.52446    -0.52121
    -0.52119    -0.51851    -0.51775    -0.51516    -0.51088    -0.50967
    -0.50849    -0.50822    -0.50640    -0.50488    -0.50463    -0.50429
    -0.50210    -0.50091    -0.49950    -0.49765    -0.49723    -0.49513
    -0.49403    -0.49093    -0.48740    -0.48631    -0.48581    -0.48522
    -0.48321    -0.48257    -0.48029    -0.47882    -0.47596    -0.47181
    -0.47074    -0.46982    -0.46605    -0.46312    -0.45951    -0.45684
    -0.45470    -0.45381    -0.45245    -0.45045    -0.44868    -0.44618
    -0.44378    -0.44170    -0.43851    -0.43817    -0.43356    -0.43227
    -0.42936    -0.42920    -0.42639    -0.42457    -0.42406    -0.42298
    -0.42232    -0.41983    -0.41858    -0.41626    -0.41554    -0.41123
    -0.40892    -0.40499    -0.40271    -0.40176    -0.39973    -0.39653
    -0.39493    -0.39253    -0.39126    -0.39053    -0.38883    -0.38560
    -0.38229    -0.38064    -0.37850    -0.37777    -0.37699    -0.37550
    -0.37117    -0.36837    -0.36781    -0.35727    -0.35571    -0.35203
    -0.34692    -0.34600    -0.34060    -0.33795    -0.33507    -0.33488
    -0.33401    -0.33119    -0.32900    -0.32704    -0.30955    -0.30593
    -0.29876    -0.29840    -0.29738    -0.29706    -0.29563    -0.29349
    -0.29001    -0.28903    -0.28669    -0.28615    -0.28431    -0.28132
    -0.27499    -0.26781    -0.25458    -0.23445    -0.08773    -0.04010
    -0.02153    -0.01802    -0.00251     0.00910     0.00954     0.01638
     0.02045     0.02165
 
  Peak memory usage:   1029 Mb
  
  end of program scf
   
 Time(scf)  user:     2614.4  user+sys:     2614.4  wallclock:     2687.6
  
  start of program sole
  
    SCRF                   solvation energy
  iteration          Hartrees            kcal/mol
     0               0.0000000            0.0000
     1              -0.0204674          -12.8435
     2              -0.0218905          -13.7365
     3              -0.0221437          -13.8954
  
  solvation energy not yet converged... 
  
[...]
       t  p  i  c  r                                 RMS    maximum
       e  d  i  u  i                       energy  density   DIIS  
       r  t  s  t  d       total energy    change  change    error 
  
etot    1  N  N  1  U   -5575.60765259613           1.4E-05  4.2E-04
etot    2  N  Y  1  U   -5575.60752761364 -1.2E-04  8.9E-06  7.3E-04
etot    3  N  Y  1  U   -5575.60771754335  1.9E-04  3.4E-07  2.9E-05
etot    4  N  N  1  U   -5575.60771776374  2.2E-07  0.0E+00  0.0E+00
  
  
 Energy components, in hartrees:
   (A)  Total zero-electron terms....   20806.83556716369
   (B)    Nuclear-nuclear............   20803.88940523974
   (C)    Nuclear-solvent............       2.94616192395
   (E)  Total one-electron terms.....  -49139.56612507359
   (F)    Electron-nuclear...........  -54672.61598184294
   (G)    Electron-solvent...........      -2.99370764096
   (H)    Kinetic....................    5536.04356441031
   (I)  Total two-electron terms.....   22757.12284014615
   (J)    Coulomb....................   23408.36348612729
   (K)    Exchange+Correlation.......    -651.24064598114
   (L)  Electronic energy............  -26382.44328492743  (E+I)
   (N)  Total quantum mech. energy...   -5575.60771776374  (A+L)
   (O)  Gas phase energy.............   -5575.56179603942
   (P)  Solution phase energy........   -5575.58394490524  (Q+R+S)
   (Q)    Total solute energy........   -5575.56017204673  (N-C-G)
   (R)    Total solvent energy.......      -0.02377285850  (C/2+G/2)
   (S)    Solute cavity energy.......       0.00000000000
   (U)  Reorganization energy........       0.00162399269  (Q-O)
   (V)  Solvation energy.............      -0.02214886582  (P-O)
  
 SCFE:  Solution phase energy: DFT(m06-2x)      -5575.58394490524 hartrees
        SCF iterations:   4
  
 
 HOMO energy:    -0.23413
 LUMO energy:    -0.08744
 
  Orbital energies (hartrees): 
   -90.20278   -90.16402   -78.21065   -67.01037   -67.00368   -25.29981
   -25.29552   -25.29464   -19.69039   -19.69025   -19.68922   -19.68568
   -19.64578   -19.63277   -19.60282   -14.87247   -14.81004   -14.76949
   -14.74519   -10.81264   -10.68663   -10.65525   -10.62729   -10.62255
   -10.62188   -10.60342   -10.60222   -10.59950   -10.59578   -10.59306
   -10.58516   -10.58391   -10.57618   -10.57347   -10.57139   -10.57027
   -10.56760   -10.56603   -10.56414   -10.56148   -10.56141   -10.55815
   -10.55494   -10.55484   -10.55431   -10.55367   -10.55329   -10.55319
   -10.55273   -10.55264   -10.55242   -10.55228   -10.55219   -10.55148
   -10.55093   -10.55087   -10.55012   -10.54998   -10.54922   -10.54895
   -10.54838   -10.54789   -10.54781   -10.54640   -10.54621   -10.54611
   -10.54566   -10.54478   -10.54468   -10.54393   -10.54340   -10.54005
   -10.53913   -10.53840   -10.53740   -10.53734   -10.53685   -10.53674
   -10.53639   -10.53597   -10.53544   -10.53414   -10.53372   -10.53358
   -10.53248   -10.53149   -10.53144   -10.52955   -10.52240   -10.52208
   -10.50520   -10.50157    -8.51425    -8.47203    -6.99006    -6.43674
    -6.43524    -6.43410    -6.39418    -6.39345    -6.39341    -5.54183
    -5.53464    -5.10863    -5.10741    -5.10594    -3.85162    -3.85127
    -3.85111    -3.84449    -3.84406    -3.84397    -1.46279    -1.37199
    -1.37075    -1.28072    -1.23203    -1.22390    -1.18580    -1.17162
    -1.11751    -1.10811    -1.10238    -1.08658    -1.04785    -0.99763
    -0.99008    -0.98317    -0.96815    -0.94845    -0.94315    -0.94126
    -0.94021    -0.94014    -0.93114    -0.92862    -0.92308    -0.91891
    -0.91134    -0.89674    -0.89096    -0.86914    -0.85435    -0.84682
    -0.84171    -0.83933    -0.83703    -0.83531    -0.83384    -0.83379
    -0.83211    -0.83041    -0.82928    -0.82840    -0.82695    -0.82648
    -0.82603    -0.82247    -0.82042    -0.81835    -0.81486    -0.80167
    -0.78170    -0.78002    -0.76681    -0.75421    -0.73870    -0.73036
    -0.71621    -0.71108    -0.70713    -0.70514    -0.70006    -0.69139
    -0.68895    -0.68621    -0.68349    -0.68032    -0.67951    -0.67483
    -0.67386    -0.67228    -0.66954    -0.66865    -0.66574    -0.66373
    -0.66279    -0.65844    -0.65653    -0.65141    -0.64898    -0.64537
    -0.63797    -0.63450    -0.63185    -0.62639    -0.61214    -0.60918
    -0.60103    -0.60066    -0.59971    -0.59754    -0.58885    -0.58864
    -0.58549    -0.58384    -0.58184    -0.58039    -0.57623    -0.57228
    -0.56874    -0.56712    -0.56661    -0.56419    -0.56074    -0.56023
    -0.55195    -0.54820    -0.54776    -0.54380    -0.53787    -0.53595
    -0.53204    -0.53008    -0.52779    -0.52622    -0.52418    -0.52111
    -0.52077    -0.51839    -0.51745    -0.51490    -0.51054    -0.50937
    -0.50832    -0.50796    -0.50624    -0.50463    -0.50459    -0.50405
    -0.50200    -0.50076    -0.49926    -0.49746    -0.49701    -0.49504
    -0.49378    -0.49048    -0.48707    -0.48619    -0.48547    -0.48501
    -0.48286    -0.48241    -0.48009    -0.47855    -0.47607    -0.47147
    -0.47044    -0.46941    -0.46571    -0.46276    -0.45917    -0.45665
    -0.45443    -0.45365    -0.45218    -0.45023    -0.44844    -0.44581
    -0.44344    -0.44152    -0.43809    -0.43781    -0.43341    -0.43204
    -0.42918    -0.42878    -0.42612    -0.42436    -0.42376    -0.42258
    -0.42202    -0.41962    -0.41827    -0.41598    -0.41525    -0.41079
    -0.40851    -0.40462    -0.40252    -0.40141    -0.39946    -0.39637
    -0.39486    -0.39239    -0.39105    -0.39023    -0.38855    -0.38511
    -0.38194    -0.38028    -0.37850    -0.37737    -0.37654    -0.37502
    -0.37056    -0.36790    -0.36736    -0.35710    -0.35520    -0.35141
    -0.34653    -0.34562    -0.34022    -0.33717    -0.33494    -0.33423
    -0.33316    -0.33067    -0.32888    -0.32657    -0.30940    -0.30583
    -0.29849    -0.29826    -0.29714    -0.29662    -0.29538    -0.29328
    -0.28972    -0.28863    -0.28613    -0.28554    -0.28381    -0.28074
    -0.27473    -0.26752    -0.25423    -0.23413    -0.08744    -0.03982
    -0.02115    -0.01797    -0.00228     0.00932     0.00969     0.01682
     0.02065     0.02192
 
  Peak memory usage:   1029 Mb
  
  end of program scf
   
 Time(scf)  user:     6683.5  user+sys:     6683.5  wallclock:     6720.8
  
  start of program sole
  
    SCRF                   solvation energy
  iteration          Hartrees            kcal/mol
     0               0.0000000            0.0000
     1              -0.0204674          -12.8435
     2              -0.0218905          -13.7365
     3              -0.0221437          -13.8954
     4              -0.0219427          -13.7693
     5              -0.0221489          -13.8986
  
  solvation energy not yet converged... 
  
  Peak memory usage:    813 Mb
  
  end of program sole
   
 Time(sole)  user:        0.1  user+sys:        0.1  wallclock:        0.1
  
  start of program ch
  
  gridpoints used for charge fit        16481
    out of a possible maximum of        16481
  
   Electrostatic potential fitting constrained to reproduce
     total charge:                yes
     dipole moment:               no 
     traceless quadrupole moment: no 
     traceless octapole moment:   no 
  
  Atomic charges from electrostatic potential: 
   
 Atom       C1           C2           C3           C4           C5      
 Charge   -0.07526     -0.05077     -0.19274      0.21941      0.08484
   
 Atom       C6           C7           C8           C9           C10     
 Charge   -0.23563     -0.40663     -0.11477     -0.10254     -0.21232
   
 Atom       C11          O12          Si13         C14          C15     
 Charge    0.25457     -0.26898     -0.20967      0.28500      0.19261
   
 Atom       C16          C17          C18          C19          C20     
 Charge    0.20890     -0.31077     -0.41749     -0.25075     -0.04093
   
 Atom       Si21         O22          C23          C24          P25     
 Charge    0.17748     -0.23865     -0.09996     -0.15450      1.06255
   
 Atom       O26          N27          C28          C29          C30     
 Charge   -0.58400     -0.61263      0.13588      0.19124      0.21898
   
 Atom       C31          C32          C33          C34          C35     
 Charge   -0.03132     -0.10271      0.01796     -0.14860     -0.19135
   
 Atom       C36          C37          C38          C39          C40     
 Charge   -0.23432     -0.13093     -0.22410     -0.17403     -0.12221
   
 Atom       C41          C42          C43          C44          C45     
 Charge    0.01099     -0.00078     -0.09185     -0.21486     -0.11302
   
 Atom       C46          C47          C48          C49          C50     
 Charge   -0.15090     -0.14884     -0.12071     -0.12465     -0.10969
   
 Atom       C51          C52          C53          C54          C55     
 Charge   -0.15215     -0.12881     -0.18575     -0.08724     -0.19156
   
 Atom       C56          C57          C58          C59          C60     
 Charge   -0.08497     -0.22459     -0.21134     -0.10092     -0.16182
   
 Atom       C61          C62          C63          C64          C65     
 Charge   -0.11201     -0.14161     -0.10838     -0.13027     -0.17571
   
 Atom       C66          C67          C68          C69          C70     
 Charge    0.00234      0.06792     -0.06554     -0.09041      0.10063
   
 Atom       N71          S72          O73          O74          C75     
 Charge   -0.22152      0.78557     -0.41647     -0.43480      0.58521
   
 Atom       C76          C77          C78          C79          N80     
 Charge   -0.52259      0.30350     -0.53023      0.51412     -0.69931
   
 Atom       N81          C82          C83          C84          C85     
 Charge    0.22546     -0.29606     -0.28142     -0.21481     -0.21582
   
 Atom       H86          H87          H88          H89          H90     
 Charge    0.09738      0.15729      0.15235      0.17792      0.14308
   
 Atom       H91          H92          H93          H94          H95     
 Charge    0.16319      0.21338      0.16529      0.14214      0.14573
   
 Atom       H96          H97          H98          H99          H100    
 Charge    0.10374      0.13798      0.13634      0.11489      0.13666
   
 Atom       H101         H102         H103         H104         H105    
 Charge    0.10173      0.13089      0.07843      0.06226      0.11594
   
 Atom       H106         H107         H108         H109         H110    
 Charge    0.14276      0.07813      0.14321      0.14153      0.13538
   
 Atom       H111         H112         H113         H114         H115    
 Charge    0.11792      0.08251      0.12857      0.13463      0.14853
   
 Atom       H116         H117         H118         H119         H120    
 Charge    0.12731      0.15664      0.12911      0.14602      0.15052
   
 Atom       H121         H122         H123         H124         H125    
 Charge    0.13036      0.13404      0.12474      0.12636      0.10539
   
 Atom       H126         H127         H128         H129         H130    
 Charge    0.15923      0.17262      0.06659      0.12088      0.13657
   
 Atom       H131         H132         H133         H134         H135    
 Charge    0.18180      0.21748      0.10651      0.22467      0.05613
   
 Atom       H136         H137         H138         H139         H140    
 Charge    0.13244      0.17253      0.17239      0.15028      0.17380
   
 Atom       S141         O142         C143         O144         F145    
 Charge    0.64690     -0.42779      0.38640     -0.42721     -0.09670
   
 Atom       F146         F147         H148    
 Charge   -0.11623     -0.15280      0.23807
  
  sum of atomic charges:    -0.000000
   
 RMS Error   1.05E-03 hartrees
 
  Peak memory usage:    816 Mb
  
  end of program ch
   
 Time(ch)  user:       16.6  user+sys:       16.6  wallclock:       17.9
  
  start of program post
  
  Writing input files for PBF
  Peak memory usage:    759 Mb
  
  end of program post
   
 Time(post)  user:        0.6  user+sys:        0.6  wallclock:        0.8

  start of program pbf

Pbf Version 4.10

Molecular surface area:      836.18040   [A2]
Reaction field energy:       -23.39940   [kT]
  Peak memory usage: 721 Mb

  end of program pbf

 Time(pbf)  user:        7.9  user+sys:        8.0  wallclock:        8.0
  
  start of program solv
  
   number of surface charges from PBF   13558
   sum of surface charges     -0.00034
   
  nuclear repulsion energy.......   20803.889405240 hartrees
  Peak memory usage:    894 Mb
  
  end of program solv
   
 Time(solv)  user:       32.7  user+sys:       32.7  wallclock:       32.8
  
  start of program scf
  
 Energy computed with NOPS off.
  
       i  u  d  i  g                   
       t  p  i  c  r                                 RMS    maximum
       e  d  i  u  i                       energy  density   DIIS  
       r  t  s  t  d       total energy    change  change    error 
  
etot    1  N  N  1  U   -5575.60763776482           7.5E-07  1.7E-05
etot    2  N  N  1  U   -5575.60763783067  6.6E-08  0.0E+00  0.0E+00
  
  
 Energy components, in hartrees:
   (A)  Total zero-electron terms....   20806.80126849856
   (B)    Nuclear-nuclear............   20803.88940523974
   (C)    Nuclear-solvent............       2.91186325881
   (E)  Total one-electron terms.....  -49139.49192437976
   (F)    Electron-nuclear...........  -54672.57582048333
   (G)    Electron-solvent...........      -2.95930179492
   (H)    Kinetic....................    5536.04319789849
   (I)  Total two-electron terms.....   22757.08301805053
   (J)    Coulomb....................   23408.32359727442
   (K)    Exchange+Correlation.......    -651.24057922389
   (L)  Electronic energy............  -26382.40890632923  (E+I)
   (N)  Total quantum mech. energy...   -5575.60763783067  (A+L)
   (O)  Gas phase energy.............   -5575.56179603942
   (P)  Solution phase energy........   -5575.58391856262  (Q+R+S)
   (Q)    Total solute energy........   -5575.56019929457  (N-C-G)
   (R)    Total solvent energy.......      -0.02371926805  (C/2+G/2)
   (S)    Solute cavity energy.......       0.00000000000
   (U)  Reorganization energy........       0.00159674485  (Q-O)
   (V)  Solvation energy.............      -0.02212252320  (P-O)
  
 SCFE:  Solution phase energy: DFT(m06-2x)      -5575.58391856262 hartrees
        SCF iterations:   2
  
 
 HOMO energy:    -0.23413
 LUMO energy:    -0.08746
 
  Orbital energies (hartrees): 
   -90.20285   -90.16401   -78.21065   -67.01041   -67.00378   -25.29980
   -25.29545   -25.29466   -19.69027   -19.69017   -19.68917   -19.68595
   -19.64566   -19.63307   -19.60288   -14.87256   -14.81018   -14.76947
   -14.74519   -10.81260   -10.68666   -10.65542   -10.62728   -10.62246
   -10.62192   -10.60350   -10.60217   -10.59955   -10.59561   -10.59302
   -10.58510   -10.58401   -10.57610   -10.57352   -10.57142   -10.57028
   -10.56761   -10.56607   -10.56418   -10.56152   -10.56144   -10.55825
   -10.55495   -10.55486   -10.55432   -10.55361   -10.55324   -10.55315
   -10.55274   -10.55263   -10.55237   -10.55231   -10.55218   -10.55144
   -10.55088   -10.55085   -10.55006   -10.54990   -10.54916   -10.54892
   -10.54841   -10.54789   -10.54779   -10.54640   -10.54626   -10.54604
   -10.54572   -10.54471   -10.54471   -10.54392   -10.54338   -10.53998
   -10.53914   -10.53830   -10.53751   -10.53732   -10.53690   -10.53668
   -10.53644   -10.53592   -10.53539   -10.53408   -10.53378   -10.53364
   -10.53251   -10.53152   -10.53149   -10.52966   -10.52244   -10.52217
   -10.50518   -10.50160    -8.51432    -8.47203    -6.99006    -6.43681
    -6.43531    -6.43416    -6.39417    -6.39345    -6.39341    -5.54188
    -5.53473    -5.10863    -5.10741    -5.10594    -3.85166    -3.85131
    -3.85115    -3.84458    -3.84414    -3.84406    -1.46276    -1.37196
    -1.37073    -1.28076    -1.23205    -1.22392    -1.18580    -1.17165
    -1.11756    -1.10815    -1.10242    -1.08660    -1.04785    -0.99764
    -0.99009    -0.98319    -0.96817    -0.94844    -0.94315    -0.94126
    -0.94021    -0.94013    -0.93113    -0.92861    -0.92307    -0.91894
    -0.91135    -0.89675    -0.89099    -0.86916    -0.85436    -0.84682
    -0.84171    -0.83932    -0.83704    -0.83530    -0.83384    -0.83379
    -0.83210    -0.83041    -0.82928    -0.82841    -0.82696    -0.82650
    -0.82603    -0.82245    -0.82041    -0.81835    -0.81486    -0.80169
    -0.78172    -0.78002    -0.76682    -0.75422    -0.73872    -0.73037
    -0.71623    -0.71110    -0.70714    -0.70515    -0.70007    -0.69140
    -0.68894    -0.68619    -0.68349    -0.68032    -0.67950    -0.67483
    -0.67385    -0.67228    -0.66956    -0.66867    -0.66574    -0.66372
    -0.66279    -0.65843    -0.65653    -0.65142    -0.64898    -0.64538
    -0.63799    -0.63452    -0.63185    -0.62640    -0.61214    -0.60919
    -0.60104    -0.60067    -0.59972    -0.59754    -0.58885    -0.58865
    -0.58550    -0.58384    -0.58184    -0.58038    -0.57623    -0.57227
    -0.56873    -0.56711    -0.56661    -0.56420    -0.56075    -0.56024
    -0.55195    -0.54821    -0.54777    -0.54381    -0.53788    -0.53596
    -0.53205    -0.53009    -0.52779    -0.52623    -0.52419    -0.52111
    -0.52080    -0.51838    -0.51746    -0.51491    -0.51055    -0.50938
    -0.50832    -0.50796    -0.50623    -0.50462    -0.50459    -0.50405
    -0.50201    -0.50076    -0.49926    -0.49746    -0.49701    -0.49505
    -0.49378    -0.49048    -0.48706    -0.48619    -0.48547    -0.48501
    -0.48287    -0.48240    -0.48009    -0.47855    -0.47606    -0.47146
    -0.47046    -0.46940    -0.46571    -0.46277    -0.45919    -0.45665
    -0.45444    -0.45365    -0.45218    -0.45024    -0.44845    -0.44581
    -0.44344    -0.44153    -0.43810    -0.43782    -0.43342    -0.43205
    -0.42918    -0.42880    -0.42613    -0.42436    -0.42377    -0.42260
    -0.42202    -0.41962    -0.41829    -0.41598    -0.41526    -0.41079
    -0.40851    -0.40463    -0.40252    -0.40142    -0.39946    -0.39638
    -0.39485    -0.39238    -0.39104    -0.39023    -0.38855    -0.38514
    -0.38194    -0.38029    -0.37850    -0.37737    -0.37653    -0.37505
    -0.37060    -0.36793    -0.36740    -0.35711    -0.35522    -0.35144
    -0.34655    -0.34564    -0.34023    -0.33720    -0.33496    -0.33425
    -0.33319    -0.33069    -0.32890    -0.32658    -0.30940    -0.30583
    -0.29849    -0.29825    -0.29714    -0.29662    -0.29539    -0.29329
    -0.28973    -0.28862    -0.28613    -0.28556    -0.28380    -0.28074
    -0.27474    -0.26752    -0.25425    -0.23413    -0.08746    -0.03983
    -0.02117    -0.01798    -0.00229     0.00931     0.00967     0.01680
     0.02065     0.02192
 
  Peak memory usage:   1029 Mb
  
  end of program scf
   
 Time(scf)  user:     2248.4  user+sys:     2248.4  wallclock:     2261.3
  
  start of program sole
  
    SCRF                   solvation energy
  iteration          Hartrees            kcal/mol
     0               0.0000000            0.0000
     1              -0.0204674          -12.8435
     2              -0.0218905          -13.7365
     3              -0.0221437          -13.8954
     4              -0.0219427          -13.7693
     5              -0.0221489          -13.8986
     6              -0.0221225          -13.8821
  
  stopping: solvation energy converged
  
  iterations:   6    sfinal:    -13.8821 kcal/mol
  
  Peak memory usage:    813 Mb
  
  end of program sole
   
 Time(sole)  user:        0.1  user+sys:        0.1  wallclock:        0.1
  
  start of program post
  
  Writing input files for PBF
  Peak memory usage:    759 Mb
  
  end of program post
   
 Time(post)  user:        0.6  user+sys:        0.6  wallclock:        0.9

 Total cpu seconds     user:   61534.602   user+sys:   61534.602
  
 Total elapsed time:    63191 seconds

Job Toru-SiPh3-NTf-Type-II-E-Sulfonyl-1-chkp-scan-207-unrestrained-IRC-max-disp-SPE completed on tethys at Thu Mar 30 10:41:32 2017
