Job B3LYP-SPE-Toru-SiPh3-Type-I-E-6-chkp-unrestrained started on tethys at Fri Nov 25 14:04:58 2016
jobid: tethys-0-5838450a

  +--------------------------------------------------------------------+
  |  Jaguar version 8.4, release  16                                   |
  |                                                                    |
  |  Copyright Schrodinger, Inc.                                       |
  |  All Rights Reserved.                                              |
  |                                                                    |
  |  The following have contributed to Jaguar (listed alphabetically): |
  |  Mike Beachy, Art Bochevarov, Dale Braden, Yixiang Cao,            |
  |  Chris Cortis, Rich Friesner, Bill Goddard, Hod Greeley,           |
  |  Tom Hughes, Jean-Marc Langlois, Daniel Mainz, Rob Murphy,         |
  |  Dean Philipp, Tom Pollard, Murco Ringnalda.                       |
  |                                                                    |
  |  Use of this program should be acknowledged in publications as:    |
  |                                                                    |
  |  Jaguar, version 8.4, Schrodinger, Inc., New York, NY, 2013.       |
  |                                                                    |
  |  A. D. Bochevarov, E. Harder, T. F. Hughes, J. R. Greenwood,       |
  |  D. A. Braden, D. M. Philipp, D. Rinaldo, M. D. Halls,             |
  |  J. Zhang, R. A. Friesner, "Jaguar: A High-Performance Quantum     |
  |  Chemistry Software Program with Strengths in Life and Materials   |
  |  Sciences", Int. J. Quantum Chem., 2013, 113(18), 2110-2142.       |
  +--------------------------------------------------------------------+
  
  start of program pre
  
  Job name: B3LYP-SPE-Toru-SiPh3-Type-I-E-6-chkp-unrestrained
  Executables used: /usr/local/shared/schrodinger/current/jaguar-v84016/bin/Linux-x86_64
  Temporary files : /home/ab2144/.schrodinger/tmp/B3LYP-SPE-Toru-SiPh3-Type-I-E-6-chkp-unrestrained
  Maestro file (input):  B3LYP-SPE-Toru-SiPh3-Type-I-E-6-chkp-unrestrained.mae
  Maestro file (output): B3LYP-SPE-Toru-SiPh3-Type-I-E-6-chkp-unrestrained.01.mae
  
  
  basis set:             6-31g**         
  net molecular charge:    0
  multiplicity:            1
  
  keygrid settings 
    wispc.....   7.500E-01
    ldens.....   0
    denspc....   7.500E-01
  
   grid     daf set  nls  grid set  Q type
  ------    -------  ---  --------  ------
  coarse       1      1       1        1
  medium       2      2       2        1
  fine         3      2       3        0
  ultrafine    4      2       4        1
  charge       0      1      -1        1
  gradient     5      2       4        1
  density      0      1       0        0
  DFT-fine     0      1     -13        0
  DFT-med.     0      1     -13        0
  DFT-grad     0      1     -13        0
  DFT-der2     0      1       0        0
  DFT-cphf     0      1       0        0
  LMP2-enrg    4      2       4        1
  LMP2-grad    5      2       2        1
  DFT-cphf2    0      1       0        0
  PBF-dens     0      1       0        0
  plotting     0      1       0        0
  
  idftgrdm  100
  ndftgrdm   50    0    0
  idftgrdf  111
  ndftgrdf   85    0    0
  idftgrdg  111
  ndftgrdg   80    3    0
  idftgrdu  433
  ndftgrdu  105    0    0
  idftgrdd  433
  ndftgrdd  105    0    0
  idftgrdc  433
  ndftgrdc   26    0    0
  idftgrdp  433
  ndftgrdp   18    0    0
  
  number of basis functions....         1571
  
 Input geometry:
                                   angstroms
  atom               x                 y                 z
  C1           -1.6490000000      5.4634000000      0.4712000000 
  C2           -2.2907000000      4.1369000000      0.2530000000 
  C3           -2.3460000000      6.4730000000      1.0052000000 
  C4           -3.5703000000      3.9575000000      0.6473000000 
  C5           -1.5374000000      2.9904000000     -0.3403000000 
  C6           -4.3350000000      5.0837000000      1.2319000000 
  C7           -4.2070000000      2.6348000000      0.5124000000 
  C8           -3.7546000000      6.2770000000      1.3958000000 
  C9           -2.0886000000      1.7578000000     -0.3472000000 
  C10          -0.1643000000      3.1736000000     -0.8694000000 
  C11          -3.5197000000      1.5868000000      0.0336000000 
  O12          -1.3606000000      0.6892000000     -0.8103000000 
  Si13         -4.3998000000     -0.0512000000     -0.1141000000 
  C14           0.1100000000      4.0236000000     -1.8856000000 
  C15           0.9449000000      2.4318000000     -0.2065000000 
  C16           1.5223000000      4.3209000000     -2.2274000000 
  C17          -0.9443000000      4.6974000000     -2.6856000000 
  C18           2.5167000000      3.7616000000     -1.5275000000 
  C19           1.8021000000      5.2722000000     -3.3215000000 
  C20           2.2239000000      2.7931000000     -0.4448000000 
  Si21          3.6610000000      2.0467000000      0.4844000000 
  O22           0.6484000000      1.4932000000      0.7522000000 
  C23          -0.6154000000      5.5478000000     -3.6653000000 
  C24           0.7961000000      5.8461000000     -3.9903000000 
  P25          -0.1758000000      0.1687000000      0.2134000000 
  O26          -0.7803000000     -0.4440000000      1.4585000000 
  O27           0.7427000000     -0.6888000000     -0.6307000000 
  C28          -4.3454000000     -0.9290000000      1.5319000000 
  C29          -6.1752000000      0.3146000000     -0.5599000000 
  C30          -3.6719000000     -1.0671000000     -1.4978000000 
  C31           3.8627000000      0.3050000000     -0.1338000000 
  C32           5.2022000000      3.0193000000      0.1230000000 
  C33           3.4498000000      2.1599000000      2.3332000000 
  C34          -3.7249000000     -0.3739000000      2.5877000000 
  C35          -5.0527000000     -2.2225000000      1.7060000000 
  C36          -6.4681000000      0.9285000000     -1.7195000000 
  C37          -7.2768000000     -0.0163000000      0.3799000000 
  C38          -3.4421000000     -2.3830000000     -1.3568000000 
  C39          -3.3903000000     -0.4201000000     -2.8040000000 
  C40           4.0216000000     -0.7309000000      0.7047000000 
  C41           3.9135000000      0.0706000000     -1.5974000000 
  C42           6.2784000000      2.4518000000     -0.4476000000 
  C43           5.2465000000      4.4520000000      0.5015000000 
  C44           4.3960000000      1.6582000000      3.1456000000 
  C45           2.2920000000      2.8746000000      2.9273000000 
  C46          -3.7398000000     -1.0495000000      3.9015000000 
  C47          -4.3713000000     -2.2198000000      4.0477000000 
  C48          -5.0587000000     -2.8353000000      2.8958000000 
  C49          -7.8703000000      1.2317000000     -2.0727000000 
  C50          -8.8584000000      0.9113000000     -1.2303000000 
  C51          -8.5460000000      0.2631000000      0.0583000000 
  C52          -2.9795000000     -3.1862000000     -2.5067000000 
  C53          -2.7530000000     -2.6012000000     -3.6877000000 
  C54          -2.9526000000     -1.1472000000     -3.8388000000 
  C55           4.2894000000     -2.0833000000      0.1744000000 
  C56           4.3618000000     -2.2830000000     -1.1450000000 
  C57           4.1485000000     -1.1573000000     -2.0755000000 
  C58           7.4898000000      3.2569000000     -0.7102000000 
  C59           7.5216000000      4.5519000000     -0.3737000000 
  C60           6.3454000000      5.1781000000      0.2632000000 
  C61           4.2402000000      1.7379000000      4.6126000000 
  C62           3.1710000000      2.3436000000      5.1409000000 
  C63           2.1565000000      2.9509000000      4.2570000000 
  C64           2.9882000000     -4.6447000000      3.5393000000 
  C65           2.2370000000     -4.8519000000      2.3858000000 
  C66           1.6053000000     -3.7763000000      1.7386000000 
  C67           1.7053000000     -2.4919000000      2.2976000000 
  C68           2.4456000000     -2.2923000000      3.4622000000 
  C69           3.0952000000     -3.3613000000      4.0800000000 
  C70           0.8666000000     -4.0748000000      0.4914000000 
  N71           0.9398000000     -3.2343000000     -0.5927000000 
  S72           0.6119000000     -3.8780000000     -2.1238000000 
  O73          -0.2925000000     -5.0224000000     -1.9493000000 
  O74           0.2901000000     -2.7617000000     -3.0058000000 
  C75           2.2088000000     -4.5425000000     -2.6705000000 
  C76           2.7755000000     -4.0494000000     -3.8425000000 
  C77           3.9813000000     -4.6222000000     -4.2490000000 
  C78           4.5423000000     -5.6347000000     -3.4729000000 
  C79           3.8784000000     -6.0391000000     -2.3117000000 
  N80           2.7206000000     -5.5047000000     -1.9092000000 
  N81          -1.2859000000     -2.9884000000      1.8557000000 
  C82          -1.3281000000     -3.3626000000      3.1329000000 
  C83          -1.3310000000     -4.7750000000      3.2233000000 
  C84          -1.2525000000     -5.2481000000      1.9276000000 
  C85          -1.1208000000     -4.1234000000      1.0521000000 
  H86          -0.6104000000      5.6257000000      0.2166000000 
  H87          -1.8746000000      7.4346000000      1.1620000000 
  H88          -5.3667000000      4.9443000000      1.5302000000 
  H89          -5.2400000000      2.5230000000      0.8188000000 
  H90          -4.3134000000      7.0989000000      1.8242000000 
  H91          -1.9925000000      4.4987000000     -2.5029000000 
  H92           3.5428000000      3.9951000000     -1.7802000000 
  H93           2.8242000000      5.5141000000     -3.5877000000 
  H94          -1.3978000000      6.0258000000     -4.2408000000 
  H95           1.0156000000      6.5422000000     -4.7897000000 
  H96           0.8889000000     -2.1277000000     -0.5558000000 
  H97          -3.2138000000      0.5753000000      2.5035000000 
  H98          -5.5856000000     -2.6682000000      0.8756000000 
  H99          -5.6898000000      1.2206000000     -2.4085000000 
  H100         -7.0694000000     -0.4642000000      1.3405000000 
  H101         -3.6155000000     -2.8875000000     -0.4206000000 
  H102         -3.5114000000      0.6483000000     -2.9227000000 
  H103          3.9875000000     -0.5967000000      1.7734000000 
  H104          3.7701000000      0.8940000000     -2.2858000000 
  H105          6.2843000000      1.4052000000     -0.7184000000 
  H106          4.3877000000      4.9175000000      0.9693000000 
  H107          5.2801000000      1.1819000000      2.7403000000 
  H108          1.5625000000      3.3646000000      2.2988000000 
  H109         -3.2328000000     -0.5973000000      4.7439000000 
  H110         -4.3774000000     -2.7183000000      5.0083000000 
  H111         -5.5775000000     -3.7770000000      3.0194000000 
  H112         -8.0952000000      1.7149000000     -3.0147000000 
  H113         -9.8860000000      1.1339000000     -1.4869000000 
  H114         -9.3460000000      0.0249000000      0.7474000000 
  H115         -2.8372000000     -4.2525000000     -2.3932000000 
  H116         -2.4142000000     -3.1899000000     -4.5304000000 
  H117         -2.7406000000     -0.6706000000     -4.7871000000 
  H118          4.4457000000     -2.9083000000      0.8573000000 
  H119          4.5859000000     -3.2669000000     -1.5305000000 
  H120          4.1917000000     -1.3263000000     -3.1436000000 
  H121          8.3518000000      2.7955000000     -1.1744000000 
  H122          8.4085000000      5.1420000000     -0.5651000000 
  H123          6.3753000000      6.2247000000      0.5376000000 
  H124          4.9925000000      1.3030000000      5.2578000000 
  H125          3.0549000000      2.4031000000      6.2153000000 
  H126          1.3126000000      3.4743000000      4.6877000000 
  H127          3.4879000000     -5.4829000000      4.0158000000 
  H128          2.1543000000     -5.8509000000      1.9664000000 
  H129          1.2018000000     -1.6523000000      1.8353000000 
  H130          2.5161000000     -1.2922000000      3.8795000000 
  H131          3.6781000000     -3.1976000000      4.9817000000 
  H132          0.8946000000     -5.1212000000      0.2070000000 
  H133          2.2883000000     -3.2528000000     -4.3911000000 
  H134          4.4728000000     -4.2793000000     -5.1541000000 
  H135          5.4792000000     -6.1039000000     -3.7541000000 
  H136          4.2924000000     -6.8208000000     -1.6794000000 
  H137         -1.1650000000     -1.9709000000      1.5654000000 
  H138         -1.3275000000     -2.6269000000      3.9251000000 
  H139         -1.3724000000     -5.3468000000      4.1391000000 
  H140         -1.2355000000     -6.2800000000      1.6033000000 
  H141         -1.4617000000     -4.1112000000      0.0268000000 
   
  principal moments of inertia:
        amu*angstrom^2:    19118.17213    22161.68388    29379.03699
                g*cm^2: 3.17464678E-36 3.68003373E-36 4.87850326E-36
   
  rotational constants:
               cm^(-1):      0.00088176      0.00076067      0.00057380
                   GHz:      0.02643448      0.02280418      0.01720203
   
  Molecular weight:    1177.32 amu
   
  Stoichiometry: Si2C72PN3H56SO6
  Molecular Point Group: C1      
  Point Group used: C1
  
  nuclear repulsion energy.......   17185.236525499 hartrees
 
 Non-default options chosen:
   SCF calculation type: DFT(b3lyp)                  
   DFT=Becke_3_Parameter/HF+Slater+Becke88+VWN+LYP (B3LYP)
   Solvation energy will be computed using PBF
     -solute cavity energy will not be included
     -surface area terms will not be included
   Highest accuracy cutoffs used in SCF
   Solvent: other                                                           
   Internal dielectric constant:    1.000
   Continuum dielectric constant:   2.380
   Solvent probe molecule radius:   2.760
  
 Temporary integer options set:
     73=  2
  
  atom       vdw   vdw2    cov     mass  grid  daf  charge   basis
  C1        1.949  1.900  0.770   12.000    Y    Y      Y    6-31g**
  C2        1.949  1.900  0.770   12.000    Y    Y      Y    6-31g**
  C3        1.949  1.900  0.770   12.000    Y    Y      Y    6-31g**
  C4        1.949  1.900  0.770   12.000    Y    Y      Y    6-31g**
  C5        1.949  1.900  0.770   12.000    Y    Y      Y    6-31g**
  C6        1.949  1.900  0.770   12.000    Y    Y      Y    6-31g**
  C7        1.949  1.900  0.770   12.000    Y    Y      Y    6-31g**
  C8        1.949  1.900  0.770   12.000    Y    Y      Y    6-31g**
  C9        1.949  1.900  0.770   12.000    Y    Y      Y    6-31g**
  C10       1.949  1.900  0.770   12.000    Y    Y      Y    6-31g**
  C11       1.949  1.900  0.770   12.000    Y    Y      Y    6-31g**
  O12       1.702  1.600  0.730   15.995    Y    Y      Y    6-31g**
  Si13      2.217  2.147  1.110   27.977    Y    Y      Y    6-31g**
  C14       1.949  1.900  0.770   12.000    Y    Y      Y    6-31g**
  C15       1.949  1.900  0.770   12.000    Y    Y      Y    6-31g**
  C16       1.949  1.900  0.770   12.000    Y    Y      Y    6-31g**
  C17       1.949  1.900  0.770   12.000    Y    Y      Y    6-31g**
  C18       1.949  1.900  0.770   12.000    Y    Y      Y    6-31g**
  C19       1.949  1.900  0.770   12.000    Y    Y      Y    6-31g**
  C20       1.949  1.900  0.770   12.000    Y    Y      Y    6-31g**
  Si21      2.217  2.147  1.110   27.977    Y    Y      Y    6-31g**
  O22       1.702  1.600  0.730   15.995    Y    Y      Y    6-31g**
  C23       1.949  1.900  0.770   12.000    Y    Y      Y    6-31g**
  C24       1.949  1.900  0.770   12.000    Y    Y      Y    6-31g**
  P25       2.147  2.074  1.060   30.974    Y    Y      Y    6-31g**
  O26       1.702  1.600  0.730   15.995    Y    Y      Y    6-31g**
  O27       1.702  1.600  0.730   15.995    Y    Y      Y    6-31g**
  C28       1.949  1.900  0.770   12.000    Y    Y      Y    6-31g**
  C29       1.949  1.900  0.770   12.000    Y    Y      Y    6-31g**
  C30       1.949  1.900  0.770   12.000    Y    Y      Y    6-31g**
  C31       1.949  1.900  0.770   12.000    Y    Y      Y    6-31g**
  C32       1.949  1.900  0.770   12.000    Y    Y      Y    6-31g**
  C33       1.949  1.900  0.770   12.000    Y    Y      Y    6-31g**
  C34       1.949  1.900  0.770   12.000    Y    Y      Y    6-31g**
  C35       1.949  1.900  0.770   12.000    Y    Y      Y    6-31g**
  C36       1.949  1.900  0.770   12.000    Y    Y      Y    6-31g**
  C37       1.949  1.900  0.770   12.000    Y    Y      Y    6-31g**
  C38       1.949  1.900  0.770   12.000    Y    Y      Y    6-31g**
  C39       1.949  1.900  0.770   12.000    Y    Y      Y    6-31g**
  C40       1.949  1.900  0.770   12.000    Y    Y      Y    6-31g**
  C41       1.949  1.900  0.770   12.000    Y    Y      Y    6-31g**
  C42       1.949  1.900  0.770   12.000    Y    Y      Y    6-31g**
  C43       1.949  1.900  0.770   12.000    Y    Y      Y    6-31g**
  C44       1.949  1.900  0.770   12.000    Y    Y      Y    6-31g**
  C45       1.949  1.900  0.770   12.000    Y    Y      Y    6-31g**
  C46       1.949  1.900  0.770   12.000    Y    Y      Y    6-31g**
  C47       1.949  1.900  0.770   12.000    Y    Y      Y    6-31g**
  C48       1.949  1.900  0.770   12.000    Y    Y      Y    6-31g**
  C49       1.949  1.900  0.770   12.000    Y    Y      Y    6-31g**
  C50       1.949  1.900  0.770   12.000    Y    Y      Y    6-31g**
  C51       1.949  1.900  0.770   12.000    Y    Y      Y    6-31g**
  C52       1.949  1.900  0.770   12.000    Y    Y      Y    6-31g**
  C53       1.949  1.900  0.770   12.000    Y    Y      Y    6-31g**
  C54       1.949  1.900  0.770   12.000    Y    Y      Y    6-31g**
  C55       1.949  1.900  0.770   12.000    Y    Y      Y    6-31g**
  C56       1.949  1.900  0.770   12.000    Y    Y      Y    6-31g**
  C57       1.949  1.900  0.770   12.000    Y    Y      Y    6-31g**
  C58       1.949  1.900  0.770   12.000    Y    Y      Y    6-31g**
  C59       1.949  1.900  0.770   12.000    Y    Y      Y    6-31g**
  C60       1.949  1.900  0.770   12.000    Y    Y      Y    6-31g**
  C61       1.949  1.900  0.770   12.000    Y    Y      Y    6-31g**
  C62       1.949  1.900  0.770   12.000    Y    Y      Y    6-31g**
  C63       1.949  1.900  0.770   12.000    Y    Y      Y    6-31g**
  C64       1.949  1.900  0.770   12.000    Y    Y      Y    6-31g**
  C65       1.949  1.900  0.770   12.000    Y    Y      Y    6-31g**
  C66       1.949  1.900  0.770   12.000    Y    Y      Y    6-31g**
  C67       1.949  1.900  0.770   12.000    Y    Y      Y    6-31g**
  C68       1.949  1.900  0.770   12.000    Y    Y      Y    6-31g**
  C69       1.949  1.900  0.770   12.000    Y    Y      Y    6-31g**
  C70       1.949  1.900  0.770   12.000    Y    Y      Y    6-31g**
  N71       1.831  1.600  0.750   14.003    Y    Y      Y    6-31g**
  S72       2.070  1.900  1.020   31.972    Y    Y      Y    6-31g**
  O73       1.702  1.600  0.730   15.995    Y    Y      Y    6-31g**
  O74       1.702  1.600  0.730   15.995    Y    Y      Y    6-31g**
  C75       1.949  1.900  0.770   12.000    Y    Y      Y    6-31g**
  C76       1.949  1.900  0.770   12.000    Y    Y      Y    6-31g**
  C77       1.949  1.900  0.770   12.000    Y    Y      Y    6-31g**
  C78       1.949  1.900  0.770   12.000    Y    Y      Y    6-31g**
  C79       1.949  1.900  0.770   12.000    Y    Y      Y    6-31g**
  N80       1.831  1.600  0.750   14.003    Y    Y      Y    6-31g**
  N81       1.831  1.600  0.750   14.003    Y    Y      Y    6-31g**
  C82       1.949  1.900  0.770   12.000    Y    Y      Y    6-31g**
  C83       1.949  1.900  0.770   12.000    Y    Y      Y    6-31g**
  C84       1.949  1.900  0.770   12.000    Y    Y      Y    6-31g**
  C85       1.949  1.900  0.770   12.000    Y    Y      Y    6-31g**
  H86       1.597  1.150  0.320    1.008    Y    Y      Y    6-31g**
  H87       1.597  1.150  0.320    1.008    Y    Y      Y    6-31g**
  H88       1.597  1.150  0.320    1.008    Y    Y      Y    6-31g**
  H89       1.597  1.150  0.320    1.008    Y    Y      Y    6-31g**
  H90       1.597  1.150  0.320    1.008    Y    Y      Y    6-31g**
  H91       1.597  1.150  0.320    1.008    Y    Y      Y    6-31g**
  H92       1.597  1.150  0.320    1.008    Y    Y      Y    6-31g**
  H93       1.597  1.150  0.320    1.008    Y    Y      Y    6-31g**
  H94       1.597  1.150  0.320    1.008    Y    Y      Y    6-31g**
  H95       1.597  1.150  0.320    1.008    Y    Y      Y    6-31g**
  H96       1.597  1.150  0.320    1.008    Y    Y      Y    6-31g**
  H97       1.597  1.150  0.320    1.008    Y    Y      Y    6-31g**
  H98       1.597  1.150  0.320    1.008    Y    Y      Y    6-31g**
  H99       1.597  1.150  0.320    1.008    Y    Y      Y    6-31g**
  H100      1.597  1.150  0.320    1.008    Y    Y      Y    6-31g**
  H101      1.597  1.150  0.320    1.008    Y    Y      Y    6-31g**
  H102      1.597  1.150  0.320    1.008    Y    Y      Y    6-31g**
  H103      1.597  1.150  0.320    1.008    Y    Y      Y    6-31g**
  H104      1.597  1.150  0.320    1.008    Y    Y      Y    6-31g**
  H105      1.597  1.150  0.320    1.008    Y    Y      Y    6-31g**
  H106      1.597  1.150  0.320    1.008    Y    Y      Y    6-31g**
  H107      1.597  1.150  0.320    1.008    Y    Y      Y    6-31g**
  H108      1.597  1.150  0.320    1.008    Y    Y      Y    6-31g**
  H109      1.597  1.150  0.320    1.008    Y    Y      Y    6-31g**
  H110      1.597  1.150  0.320    1.008    Y    Y      Y    6-31g**
  H111      1.597  1.150  0.320    1.008    Y    Y      Y    6-31g**
  H112      1.597  1.150  0.320    1.008    Y    Y      Y    6-31g**
  H113      1.597  1.150  0.320    1.008    Y    Y      Y    6-31g**
  H114      1.597  1.150  0.320    1.008    Y    Y      Y    6-31g**
  H115      1.597  1.150  0.320    1.008    Y    Y      Y    6-31g**
  H116      1.597  1.150  0.320    1.008    Y    Y      Y    6-31g**
  H117      1.597  1.150  0.320    1.008    Y    Y      Y    6-31g**
  H118      1.597  1.150  0.320    1.008    Y    Y      Y    6-31g**
  H119      1.597  1.150  0.320    1.008    Y    Y      Y    6-31g**
  H120      1.597  1.150  0.320    1.008    Y    Y      Y    6-31g**
  H121      1.597  1.150  0.320    1.008    Y    Y      Y    6-31g**
  H122      1.597  1.150  0.320    1.008    Y    Y      Y    6-31g**
  H123      1.597  1.150  0.320    1.008    Y    Y      Y    6-31g**
  H124      1.597  1.150  0.320    1.008    Y    Y      Y    6-31g**
  H125      1.597  1.150  0.320    1.008    Y    Y      Y    6-31g**
  H126      1.597  1.150  0.320    1.008    Y    Y      Y    6-31g**
  H127      1.597  1.150  0.320    1.008    Y    Y      Y    6-31g**
  H128      1.597  1.150  0.320    1.008    Y    Y      Y    6-31g**
  H129      1.597  1.150  0.320    1.008    Y    Y      Y    6-31g**
  H130      1.597  1.150  0.320    1.008    Y    Y      Y    6-31g**
  H131      1.597  1.150  0.320    1.008    Y    Y      Y    6-31g**
  H132      1.597  1.150  0.320    1.008    Y    Y      Y    6-31g**
  H133      1.597  1.150  0.320    1.008    Y    Y      Y    6-31g**
  H134      1.597  1.150  0.320    1.008    Y    Y      Y    6-31g**
  H135      1.597  1.150  0.320    1.008    Y    Y      Y    6-31g**
  H136      1.597  1.150  0.320    1.008    Y    Y      Y    6-31g**
  H137      1.597  1.150  0.320    1.008    Y    Y      Y    6-31g**
  H138      1.597  1.150  0.320    1.008    Y    Y      Y    6-31g**
  H139      1.597  1.150  0.320    1.008    Y    Y      Y    6-31g**
  H140      1.597  1.150  0.320    1.008    Y    Y      Y    6-31g**
  H141      1.597  1.150  0.320    1.008    Y    Y      Y    6-31g**
  
  Peak memory usage:    526 Mb
  
  end of program pre
   
 Time(pre)  user:        0.0  user+sys:        0.0  wallclock:        0.9
  
  start of program onee
  
  smallest eigenvalue of S:    2.249E-04
  number of canonical orbitals.....         1565
  Peak memory usage:    700 Mb
  
  end of program onee
   
 Time(onee)  user:       26.0  user+sys:       27.0  wallclock:       51.1
  
  start of program hfig
  
  initial wavefunction generated automatically from atomic wavefunctions
 
  Irreducible     Total no   No of occupied orbitals 
  representation  orbitals   Shell_1  Shell_2    ...
  No Symm         1565        308
  ------------------------
  Orbital occupation/shell    1.000
 
  Peak memory usage:    639 Mb
  
  end of program hfig
   
 Time(hfig)  user:       39.0  user+sys:       39.0  wallclock:       63.7
  
  start of program probe
  
  Peak memory usage:    633 Mb
  
  end of program probe
   
 Time(probe)  user:       30.0  user+sys:       30.0  wallclock:       64.7
  
  start of program grid
  
  
   grid     grid set  grid #  grid sym
  ------    --------  ------  --------
  coarse        0        0        1
  medium        2        1        1
  fine          0        0        1
  ultrafine     4        2        1
  charge       -1        3        1
  gradient      4        2        1
  density       0        0        1
  DFT-fine    -13        4        1
  DFT-med.    -13        4        1
  DFT-grad    -13        4        1
  DFT-der2      0        0        1
  DFT-cphf      0        0        1
  LMP2-enrg     4        2        1
  LMP2-grad     2        1        1
  DFT-cphf2     0        0        1
  PBF-dens      0        0        1
  plotting      0        0        1
  
   
  number of gridpoints: 
     atom        C1       C2       C3       C4       C5       C6       C7
  grid # 1       97      101       94      101      100       96       92
  grid # 2      338      360      336      367      357      335      335
  grid # 3       31       25       40       46       14       47       19
  grid # 4    14816    14816    14816    14816    14816    14816    14816
   
  number of gridpoints: 
     atom        C8       C9      C10      C11      O12     Si13      C14
  grid # 1       94       97      100      100      112      474      102
  grid # 2      335      359      354      358      442      474      359
  grid # 3       49       18       12       10       60       12       32
  grid # 4    14816    14816    14816    14816    23902    22912    14816
   
  number of gridpoints: 
     atom       C15      C16      C17      C18      C19      C20     Si21
  grid # 1       97      102       97       94       97      100      470
  grid # 2      355      366      336      334      340      362      470
  grid # 3       16       41       32       24       47       14        7
  grid # 4    14816    14816    14816    14816    14816    14816    22912
   
  number of gridpoints: 
     atom       O22      C23      C24      P25      O26      O27      C28
  grid # 1      113       95       94      443      117      114       99
  grid # 2      438      338      339      443      444      437      359
  grid # 3       55       42       46        9       59       68        8
  grid # 4    23902    14816    14816    23204    23902    23902    14816
   
  number of gridpoints: 
     atom       C29      C30      C31      C32      C33      C34      C35
  grid # 1      102      101      100      100      101       92       94
  grid # 2      360      360      358      358      360      334      328
  grid # 3       21       17        7       11       15       18       11
  grid # 4    14816    14816    14816    14816    14816    14816    14816
   
  number of gridpoints: 
     atom       C36      C37      C38      C39      C40      C41      C42
  grid # 1       93       96       94       95       93       94       92
  grid # 2      336      339      334      335      333      330      336
  grid # 3       32       29       27       24       15       10       25
  grid # 4    14816    14816    14816    14816    14816    14816    14816
   
  number of gridpoints: 
     atom       C43      C44      C45      C46      C47      C48      C49
  grid # 1       94       92       96       93       93       92       94
  grid # 2      333      335      337      331      332      333      336
  grid # 3       22       19       28       25       25       22       43
  grid # 4    14816    14816    14816    14816    14816    14816    14816
   
  number of gridpoints: 
     atom       C50      C51      C52      C53      C54      C55      C56
  grid # 1       94       94       93       93       93       94       94
  grid # 2      336      336      334      333      335      333      333
  grid # 3       46       42       28       29       35       23       22
  grid # 4    14816    14816    14816    14816    14816    14816    14816
   
  number of gridpoints: 
     atom       C57      C58      C59      C60      C61      C62      C63
  grid # 1       92       94       94       93       93       94       94
  grid # 2      333      335      336      335      333      336      336
  grid # 3       23       43       44       38       31       37       35
  grid # 4    14816    14816    14816    14816    14816    14816    14816
   
  number of gridpoints: 
     atom       C64      C65      C66      C67      C68      C69      C70
  grid # 1       95       95       98       95       95       96       91
  grid # 2      330      333      355      324      330      330      322
  grid # 3       26       16        7        7       17       27        6
  grid # 4    14816    14816    14816    14816    14816    14816    14816
   
  number of gridpoints: 
     atom       N71      S72      O73      O74      C75      C76      C77
  grid # 1      100      436      119      120       98       96       96
  grid # 2      360      436      482      483      359      327      330
  grid # 3       13       13      169      121       24       29       31
  grid # 4    15000    32664    23902    23902    14816    14816    14816
   
  number of gridpoints: 
     atom       C78      C79      N80      N81      C82      C83      C84
  grid # 1       96       96      112       97       94       93       93
  grid # 2      328      336      413      349      327      330      331
  grid # 3       30       29       78       15       12       19       19
  grid # 4    14816    14816    15000    15000    14816    14816    14816
   
  number of gridpoints: 
     atom       C85      H86      H87      H88      H89      H90      H91
  grid # 1       92      111      118      118      110      118      114
  grid # 2      324      433      452      446      429      453      434
  grid # 3        8      232      417      362      203      424      248
  grid # 4    14816    16416    16416    16416    16416    16416    16416
   
  number of gridpoints: 
     atom       H92      H93      H94      H95      H96      H97      H98
  grid # 1      109      118      118      118       98      111      112
  grid # 2      425      443      449      450      389      428      428
  grid # 3      171      362      411      417       66      194      226
  grid # 4    16416    16416    16416    16416    16416    16416    16416
   
  number of gridpoints: 
     atom       H99     H100     H101     H102     H103     H104     H105
  grid # 1      109      111      107      109      107      110      111
  grid # 2      431      431      417      423      416      436      436
  grid # 3      210      221      116      173      101      249      238
  grid # 4    16416    16416    16416    16416    16416    16416    16416
   
  number of gridpoints: 
     atom      H106     H107     H108     H109     H110     H111     H112
  grid # 1      112      112      111      117      117      117      118
  grid # 2      437      430      422      448      450      451      452
  grid # 3      270      242      183      352      374      390      419
  grid # 4    16416    16416    16416    16416    16416    16416    16416
   
  number of gridpoints: 
     atom      H113     H114     H115     H116     H117     H118     H119
  grid # 1      118      118      113      117      118      113      111
  grid # 2      453      453      434      448      452      437      429
  grid # 3      424      423      257      360      406      258      193
  grid # 4    16416    16416    16416    16416    16416    16416    16416
   
  number of gridpoints: 
     atom      H120     H121     H122     H123     H124     H125     H126
  grid # 1      114      118      118      118      117      118      118
  grid # 2      440      453      453      452      452      453      452
  grid # 3      283      420      425      420      391      416      403
  grid # 4    16416    16416    16416    16416    16416    16416    16416
   
  number of gridpoints: 
     atom      H127     H128     H129     H130     H131     H132     H133
  grid # 1      118      111      105      112      118      106      114
  grid # 2      449      436      405      435      449      410      439
  grid # 3      409      273       69      229      398      103      276
  grid # 4    16416    16416    16416    16416    16416    16416    16416
   
  number of gridpoints: 
     atom      H134     H135     H136     H137     H138     H139     H140
  grid # 1      117      117      117      101      111      116      116
  grid # 2      452      452      452      395      435      458      454
  grid # 3      401      420      424       62      232      418      383
  grid # 4    16416    16416    16416    16416    16416    16416    16416
   
  number of gridpoints: 
     atom      H141    total
  grid # 1      104    16058
  grid # 2      416    54668
  grid # 3       87    19055
  grid # 4    16416  2276152
   
  Peak memory usage:    666 Mb
  
  end of program grid
   
 Time(grid)  user:      321.0  user+sys:      322.0  wallclock:      692.6
  
  start of program rwr
  
  dpptrf failed in rinv with info = 137
  switching to SVD for RwR matrix  80 for grid  2
  Peak memory usage:    648 Mb
  
  end of program rwr
   
 Time(rwr)  user:       59.0  user+sys:       64.0  wallclock:      124.1
  
  start of program scf
  
 number of electrons..........        616
 number of alpha electrons....        308
 number of beta electrons.....        308
 number of orbitals, total....       1565
 number of doubly-occ'd orbs..        308
 number of open shell orbs....          0
 number of occupied orbitals..        308
 number of virtual orbitals...       1257
 number of hamiltonians.......          1
 number of shells.............          1
 SCF type: DFT=Becke_3_Parameter/HF+Slater+Becke88+VWN+LYP (B3LYP)
  
       i  u  d  i  g                   
       t  p  i  c  r                                 RMS    maximum
       e  d  i  u  i                       energy  density   DIIS  
       r  t  s  t  d       total energy    change  change    error 
  
etot    1  N  N  1  U   -4700.92442275006           2.9E-03  1.4E-01
etot    2  N  Y  1  U   -4699.88380113469 -1.0E+00  4.8E-03  1.7E-01
etot    3  N  Y  1  U   -4640.95862996514 -5.9E+01  1.3E-02  2.3E-01
etot    4  N  Y  1  U   -4632.02217220532 -8.9E+00  1.2E-02  1.9E-01
etot    5  N  Y  1  U   -4710.74477818900  7.9E+01  1.3E-03  5.2E-02
etot    6  N  Y  1  U   -4710.53589623220 -2.1E-01  8.4E-04  4.7E-02
etot    7  N  Y  1  U   -4711.43637306772  9.0E-01  2.6E-04  1.1E-02
etot    8  N  Y  1  U   -4711.49998122883  6.4E-02  1.1E-04  5.7E-03
etot    9  N  Y  1  U   -4711.51723977832  1.7E-02  5.5E-05  4.2E-03
etot   10  N  Y  1  U   -4711.52245508818  5.2E-03  4.3E-05  1.6E-03
etot   11  N  Y  1  U   -4711.52438069765  1.9E-03  2.3E-05  1.2E-03
etot   12  N  Y  1  U   -4711.52500135585  6.2E-04  9.9E-06  5.3E-04
etot   13  N  Y  1  U   -4711.52509118036  9.0E-05  3.7E-06  2.2E-04
etot   14  N  N  1  U   -4711.52510792894  1.7E-05  0.0E+00  0.0E+00
  
  
 Energy components, in hartrees:
   (A)  Nuclear repulsion............   17185.23652549899
   (E)  Total one-electron terms.....  -40714.13328220430
   (F)    Electron-nuclear...........  -45388.53498684119
   (H)    Kinetic....................    4674.40170463688
   (I)  Total two-electron terms.....   18817.37164877637
   (J)    Coulomb....................   19392.49018965318
   (K)    Exchange+Correlation.......    -575.11854087680
   (L)  Electronic energy............  -21896.76163342793  (E+I)
   (M)  -V/T.........................       2.00794185131  (-(A+F+I)/H)
   (N)  Total energy.................   -4711.52510792894  (A+L)
  
 SCFE: SCF energy: DFT(b3lyp)     -4711.52510792894 hartrees   iterations:  14
  
 
 HOMO energy:    -0.19804
 LUMO energy:    -0.08427
 
  Orbital energies (hartrees): 
   -89.11240   -77.21203   -66.10572   -66.10550   -19.17593   -19.17068
   -19.14578   -19.14448   -19.09201   -19.08931   -14.37948   -14.36596
   -14.36351   -10.27831   -10.26605   -10.25224   -10.24672   -10.24386
   -10.24383   -10.23490   -10.22994   -10.22734   -10.22693   -10.21141
   -10.20788   -10.20451   -10.20146   -10.20017   -10.20010   -10.19880
   -10.19611   -10.19480   -10.19426   -10.19364   -10.19157   -10.19146
   -10.18971   -10.18790   -10.18727   -10.18536   -10.18453   -10.18451
   -10.18422   -10.18410   -10.18377   -10.18355   -10.18349   -10.18345
   -10.18299   -10.18293   -10.18287   -10.18267   -10.18188   -10.18185
   -10.18168   -10.18153   -10.18127   -10.18124   -10.18109   -10.18077
   -10.18074   -10.18036   -10.17926   -10.17902   -10.17845   -10.17720
   -10.17713   -10.17676   -10.17590   -10.17487   -10.17394   -10.17348
   -10.16921   -10.16888   -10.16851   -10.16806   -10.16727   -10.16705
   -10.16687   -10.16537   -10.16395   -10.16327   -10.16315   -10.15998
   -10.15598    -8.13798    -6.65616    -6.10295    -6.10208    -6.10099
    -5.25249    -5.25203    -4.82107    -4.81969    -4.81772    -3.61149
    -3.61124    -3.61106    -3.61069    -3.61065    -3.61035    -1.11292
    -1.08264    -1.04101    -1.00412    -0.99088    -0.97553    -0.96628
    -0.93844    -0.91996    -0.86701    -0.86304    -0.85390    -0.83811
    -0.83586    -0.83248    -0.83205    -0.83112    -0.82791    -0.82031
    -0.81105    -0.80136    -0.79914    -0.79185    -0.78205    -0.77691
    -0.75315    -0.74869    -0.74269    -0.74188    -0.73912    -0.73727
    -0.73463    -0.73324    -0.73249    -0.72944    -0.72836    -0.72789
    -0.72632    -0.72570    -0.72260    -0.72217    -0.72061    -0.71626
    -0.70342    -0.69888    -0.67014    -0.65926    -0.63964    -0.62389
    -0.61594    -0.60910    -0.60860    -0.60611    -0.60099    -0.59684
    -0.59407    -0.59376    -0.58971    -0.58895    -0.58805    -0.58543
    -0.58422    -0.58333    -0.58096    -0.57702    -0.57628    -0.57408
    -0.57389    -0.56934    -0.56895    -0.56363    -0.55866    -0.55149
    -0.53725    -0.53419    -0.52569    -0.52397    -0.52106    -0.51305
    -0.50769    -0.50204    -0.50098    -0.49825    -0.49711    -0.49516
    -0.49378    -0.49189    -0.48946    -0.48004    -0.47102    -0.46880
    -0.46716    -0.46558    -0.46134    -0.45849    -0.45688    -0.45278
    -0.44827    -0.44745    -0.44378    -0.44334    -0.44175    -0.44016
    -0.43819    -0.43679    -0.43437    -0.43381    -0.43340    -0.43019
    -0.43014    -0.42889    -0.42870    -0.42768    -0.42712    -0.42591
    -0.42250    -0.42166    -0.42027    -0.41883    -0.41815    -0.41726
    -0.41593    -0.41374    -0.41201    -0.41044    -0.40960    -0.40889
    -0.40796    -0.40607    -0.40517    -0.40427    -0.40066    -0.39823
    -0.39472    -0.38897    -0.38428    -0.38120    -0.38004    -0.37620
    -0.37322    -0.37125    -0.36953    -0.36419    -0.36345    -0.35957
    -0.35784    -0.35501    -0.35177    -0.35093    -0.34923    -0.34719
    -0.34689    -0.34555    -0.34251    -0.33975    -0.33811    -0.33539
    -0.33348    -0.33242    -0.33004    -0.32966    -0.32828    -0.32790
    -0.32533    -0.32382    -0.32029    -0.31968    -0.31677    -0.31374
    -0.31211    -0.31164    -0.30729    -0.30611    -0.30082    -0.29635
    -0.28987    -0.28753    -0.28515    -0.28308    -0.28212    -0.28066
    -0.27987    -0.27797    -0.27547    -0.27366    -0.26713    -0.26168
    -0.25907    -0.25568    -0.25335    -0.24749    -0.24691    -0.24274
    -0.24153    -0.23981    -0.23952    -0.23891    -0.23704    -0.23371
    -0.23215    -0.23009    -0.22925    -0.22718    -0.22319    -0.21978
    -0.21398    -0.19804    -0.08427    -0.05543    -0.04153    -0.03883
    -0.02375    -0.01168    -0.00997    -0.00951    -0.00710    -0.00573
 
  Peak memory usage:    843 Mb
  
  end of program scf
   
 Time(scf)  user:     9182.0  user+sys:     9283.0  wallclock:    15743.2
  
  start of program ch
  
  gridpoints used for charge fit        16612
    out of a possible maximum of        19055
  
   Electrostatic potential fitting constrained to reproduce
     total charge:                yes
     dipole moment:               no 
     traceless quadrupole moment: no 
     traceless octapole moment:   no 
  
  Atomic charges from electrostatic potential: 
   
 Atom       C1           C2           C3           C4           C5      
 Charge   -0.07929     -0.05332     -0.18518      0.21282      0.13160
   
 Atom       C6           C7           C8           C9           C10     
 Charge   -0.22554     -0.36594     -0.07599     -0.01088     -0.16050
   
 Atom       C11          O12          Si13         C14          C15     
 Charge    0.12561     -0.24400     -0.07389      0.07374      0.15861
   
 Atom       C16          C17          C18          C19          C20     
 Charge    0.23696     -0.12900     -0.42195     -0.22857      0.12007
   
 Atom       Si21         O22          C23          C24          P25     
 Charge   -0.16628     -0.35527     -0.15998     -0.09269      1.06615
   
 Atom       O26          O27          C28          C29          C30     
 Charge   -0.64858     -0.71909      0.15008      0.10124      0.02302
   
 Atom       C31          C32          C33          C34          C35     
 Charge    0.28403      0.12485      0.20850     -0.13473     -0.15321
   
 Atom       C36          C37          C38          C39          C40     
 Charge   -0.13241     -0.14658     -0.01951     -0.20218     -0.24602
   
 Atom       C41          C42          C43          C44          C45     
 Charge   -0.15011     -0.13964     -0.20970     -0.18703     -0.19694
   
 Atom       C46          C47          C48          C49          C50     
 Charge   -0.12921     -0.14030     -0.10267     -0.12661     -0.12045
   
 Atom       C51          C52          C53          C54          C55     
 Charge   -0.12640     -0.14018     -0.09732     -0.08602     -0.13594
   
 Atom       C56          C57          C58          C59          C60     
 Charge   -0.06611     -0.17823     -0.11563     -0.14792     -0.07415
   
 Atom       C61          C62          C63          C64          C65     
 Charge   -0.11007     -0.14373     -0.09389     -0.17335     -0.20205
   
 Atom       C66          C67          C68          C69          C70     
 Charge    0.29737     -0.05719     -0.19003     -0.07292     -0.23310
   
 Atom       N71          S72          O73          O74          C75     
 Charge   -0.31229      0.63508     -0.42926     -0.38207      0.46969
   
 Atom       C76          C77          C78          C79          N80     
 Charge   -0.35880      0.15455     -0.38014      0.34606     -0.52816
   
 Atom       N81          C82          C83          C84          C85     
 Charge   -0.06428      0.06189     -0.23970     -0.16789     -0.04341
   
 Atom       H86          H87          H88          H89          H90     
 Charge    0.10280      0.13284      0.13210      0.17323      0.11280
   
 Atom       H91          H92          H93          H94          H95     
 Charge    0.10898      0.19124      0.13166      0.12879      0.11385
   
 Atom       H96          H97          H98          H99          H100    
 Charge    0.45927      0.12071      0.12434      0.10732      0.09400
   
 Atom       H101         H102         H103         H104         H105    
 Charge    0.00925      0.15049      0.13270      0.11887      0.08792
   
 Atom       H106         H107         H108         H109         H110    
 Charge    0.13370      0.11020      0.13253      0.11873      0.11546
   
 Atom       H111         H112         H113         H114         H115    
 Charge    0.10572      0.11658      0.11541      0.11829      0.11230
   
 Atom       H116         H117         H118         H119         H120    
 Charge    0.10890      0.10846      0.11610      0.06500      0.12171
   
 Atom       H121         H122         H123         H124         H125    
 Charge    0.11547      0.11980      0.10641      0.11216      0.11806
   
 Atom       H126         H127         H128         H129         H130    
 Charge    0.11130      0.13905      0.14067      0.11504      0.13236
   
 Atom       H131         H132         H133         H134         H135    
 Charge    0.11601      0.14887      0.17431      0.09631      0.16981
   
 Atom       H136         H137         H138         H139         H140    
 Charge    0.04887      0.25613      0.12193      0.16132      0.16881
   
 Atom       H141    
 Charge    0.19659
  
  sum of atomic charges:     0.000000
   
 RMS Error   9.06E-04 hartrees
 
  Peak memory usage:    584 Mb
  
  end of program ch
   
 Time(ch)  user:       19.0  user+sys:       20.0  wallclock:       31.2
  
  start of program post
  
  Writing input files for PBF
  Peak memory usage:    534 Mb
  
  end of program post
   
 Time(post)  user:        0.0  user+sys:        0.0  wallclock:        0.5

  start of program pbf

Pbf Version 4.00

Molecular surface area:      841.22236   [A2]
Reaction field energy:       -14.32592   [kT]
  Peak memory usage: 557 Mb

  end of program pbf

 Time(pbf)  user:       20.8  user+sys:       20.8  wallclock:       26.3
  
  start of program solv
  
   number of surface charges from PBF   13324
   sum of surface charges     -0.00043
   
  nuclear repulsion energy.......   17185.236525499 hartrees
  Peak memory usage:    694 Mb
  
  end of program solv
   
 Time(solv)  user:       36.0  user+sys:       36.0  wallclock:       42.1
  
  start of program scf
  
  
       i  u  d  i  g                   
       t  p  i  c  r                                 RMS    maximum
       e  d  i  u  i                       energy  density   DIIS  
       r  t  s  t  d       total energy    change  change    error 
  
etot    1  N  N  1  U   -4711.55563302401           5.8E-05  9.3E-04
etot    2  N  Y  1  U   -4711.55598021174  3.5E-04  2.3E-05  1.3E-03
etot    3  N  Y  1  U   -4711.55636070985  3.8E-04  8.0E-06  6.3E-04
etot    4  N  Y  1  U   -4711.55645239342  9.2E-05  3.7E-06  1.5E-04
etot    5  N  N  1  U   -4711.55646540838  1.3E-05  0.0E+00  0.0E+00
  
  
 Energy components, in hartrees:
   (A)  Total zero-electron terms....   17187.85462835236
   (B)    Nuclear-nuclear............   17185.23652549899
   (C)    Nuclear-solvent............       2.61810285337
   (E)  Total one-electron terms.....  -40718.17566112725
   (F)    Electron-nuclear...........  -45389.96904598372
   (G)    Electron-solvent...........      -2.65029144289
   (H)    Kinetic....................    4674.44367629936
   (I)  Total two-electron terms.....   18818.76456736651
   (J)    Coulomb....................   19393.89950428426
   (K)    Exchange+Correlation.......    -575.13493691775
   (L)  Electronic energy............  -21899.41109376074  (E+I)
   (N)  Total quantum mech. energy...   -4711.55646540838  (A+L)
   (O)  Gas phase energy.............   -4711.52510792894
   (P)  Solution phase energy........   -4711.54037111362  (Q+R+S)
   (Q)    Total solute energy........   -4711.52427681885  (N-C-G)
   (R)    Total solvent energy.......      -0.01609429476  (C/2+G/2)
   (S)    Solute cavity energy.......       0.00000000000
   (U)  Reorganization energy........       0.00083111008  (Q-O)
   (V)  Solvation energy.............      -0.01526318468  (P-O)
  
 SCFE:  Solution phase energy: DFT(b3lyp)      -4711.54037111362 hartrees
        SCF iterations:   5
  
 
 HOMO energy:    -0.20172
 LUMO energy:    -0.08365
 
  Orbital energies (hartrees): 
   -89.11545   -77.21564   -66.10962   -66.10902   -19.17972   -19.17460
   -19.14931   -19.14453   -19.09530   -19.09237   -14.37903   -14.36836
   -14.36159   -10.27961   -10.26356   -10.25052   -10.24788   -10.24696
   -10.24169   -10.22975   -10.22865   -10.22218   -10.22085   -10.21167
   -10.20582   -10.20311   -10.20249   -10.19955   -10.19916   -10.19775
   -10.19769   -10.19715   -10.19563   -10.19480   -10.19432   -10.19347
   -10.19275   -10.19065   -10.18827   -10.18765   -10.18709   -10.18682
   -10.18646   -10.18639   -10.18609   -10.18600   -10.18598   -10.18566
   -10.18546   -10.18528   -10.18501   -10.18491   -10.18484   -10.18469
   -10.18462   -10.18449   -10.18440   -10.18437   -10.18394   -10.18378
   -10.18347   -10.18328   -10.18310   -10.18306   -10.18177   -10.18070
   -10.17985   -10.17904   -10.17772   -10.17684   -10.17678   -10.17621
   -10.17371   -10.17337   -10.17281   -10.17167   -10.17098   -10.17069
   -10.16960   -10.16836   -10.16805   -10.16782   -10.16745   -10.16255
   -10.16057    -8.14089    -6.65977    -6.10587    -6.10508    -6.10382
    -5.25611    -5.25576    -4.82470    -4.82331    -4.82132    -3.61513
    -3.61476    -3.61473    -3.61452    -3.61445    -3.61396    -1.11562
    -1.08647    -1.04489    -1.00702    -0.99031    -0.97266    -0.96950
    -0.94053    -0.92309    -0.87061    -0.86224    -0.85737    -0.84003
    -0.83913    -0.83633    -0.83541    -0.83061    -0.82581    -0.82492
    -0.81449    -0.80474    -0.79588    -0.79024    -0.78557    -0.77601
    -0.75202    -0.75200    -0.74562    -0.74420    -0.73970    -0.73791
    -0.73778    -0.73661    -0.73586    -0.73201    -0.73152    -0.73115
    -0.72959    -0.72840    -0.72598    -0.72495    -0.72477    -0.72064
    -0.70267    -0.70230    -0.66850    -0.65412    -0.64288    -0.62302
    -0.61870    -0.61182    -0.60937    -0.60750    -0.60331    -0.59735
    -0.59611    -0.59334    -0.59224    -0.59151    -0.59010    -0.58878
    -0.58686    -0.58324    -0.58144    -0.57974    -0.57932    -0.57779
    -0.57622    -0.57289    -0.57167    -0.56280    -0.56160    -0.55031
    -0.53874    -0.53529    -0.52844    -0.52385    -0.52181    -0.51601
    -0.50443    -0.50398    -0.50343    -0.50067    -0.49949    -0.49748
    -0.49443    -0.49269    -0.49091    -0.48298    -0.47070    -0.46908
    -0.46686    -0.46605    -0.46358    -0.46063    -0.45704    -0.45293
    -0.45032    -0.44980    -0.44586    -0.44554    -0.44328    -0.44096
    -0.44045    -0.43754    -0.43636    -0.43618    -0.43363    -0.43318
    -0.43206    -0.43135    -0.43107    -0.42793    -0.42656    -0.42501
    -0.42420    -0.42335    -0.42203    -0.42121    -0.42002    -0.41958
    -0.41793    -0.41560    -0.41462    -0.41351    -0.41280    -0.41073
    -0.40854    -0.40801    -0.40463    -0.40197    -0.40135    -0.39795
    -0.39650    -0.39193    -0.38693    -0.38364    -0.38231    -0.37967
    -0.37675    -0.37381    -0.37017    -0.36672    -0.36339    -0.36183
    -0.35904    -0.35778    -0.35511    -0.35430    -0.35071    -0.35043
    -0.35029    -0.34821    -0.34475    -0.34251    -0.34096    -0.33788
    -0.33571    -0.33407    -0.33270    -0.33265    -0.33141    -0.33039
    -0.32721    -0.32595    -0.32342    -0.32081    -0.32023    -0.31687
    -0.31549    -0.31125    -0.31023    -0.30630    -0.30328    -0.29977
    -0.29265    -0.28883    -0.28621    -0.28557    -0.28498    -0.28359
    -0.28189    -0.27950    -0.27866    -0.27368    -0.27016    -0.26518
    -0.26026    -0.25574    -0.25455    -0.25094    -0.24867    -0.24665
    -0.24567    -0.24404    -0.24283    -0.24183    -0.23984    -0.23642
    -0.23475    -0.23366    -0.23252    -0.23083    -0.22612    -0.22462
    -0.21771    -0.20172    -0.08365    -0.05199    -0.04249    -0.03709
    -0.02745    -0.01403    -0.01181    -0.01049    -0.00940    -0.00805
 
  Peak memory usage:    839 Mb
  
  end of program scf
   
 Time(scf)  user:     2698.0  user+sys:     2727.0  wallclock:     4358.5
  
  start of program sole
  
    SCRF                   solvation energy
  iteration          Hartrees            kcal/mol
     0               0.0000000            0.0000
     1              -0.0152632           -9.5778
  
  solvation energy not yet converged... 
  
  Peak memory usage:    634 Mb
  
  end of program sole
   
 Time(sole)  user:        0.0  user+sys:        0.0  wallclock:        0.3
  
  start of program ch
  
  gridpoints used for charge fit        16612
    out of a possible maximum of        16612
  
   Electrostatic potential fitting constrained to reproduce
     total charge:                yes
     dipole moment:               no 
     traceless quadrupole moment: no 
     traceless octapole moment:   no 
  
  Atomic charges from electrostatic potential: 
   
 Atom       C1           C2           C3           C4           C5      
 Charge   -0.07930     -0.05310     -0.19454      0.21349      0.13871
   
 Atom       C6           C7           C8           C9           C10     
 Charge   -0.23327     -0.38202     -0.08083     -0.02913     -0.16130
   
 Atom       C11          O12          Si13         C14          C15     
 Charge    0.14958     -0.23483     -0.09546      0.07251      0.14535
   
 Atom       C16          C17          C18          C19          C20     
 Charge    0.23927     -0.13005     -0.43309     -0.23685      0.14195
   
 Atom       Si21         O22          C23          C24          P25     
 Charge   -0.19384     -0.35065     -0.16898     -0.09820      1.06675
   
 Atom       O26          O27          C28          C29          C30     
 Charge   -0.65440     -0.72560      0.16684      0.09437      0.03353
   
 Atom       C31          C32          C33          C34          C35     
 Charge    0.30107      0.12491      0.22143     -0.15002     -0.15746
   
 Atom       C36          C37          C38          C39          C40     
 Charge   -0.13373     -0.14177     -0.02518     -0.21364     -0.25744
   
 Atom       C41          C42          C43          C44          C45     
 Charge   -0.14864     -0.13723     -0.21276     -0.19637     -0.20517
   
 Atom       C46          C47          C48          C49          C50     
 Charge   -0.13207     -0.15303     -0.10326     -0.13434     -0.12626
   
 Atom       C51          C52          C53          C54          C55     
 Charge   -0.13708     -0.14364     -0.10843     -0.08956     -0.14352
   
 Atom       C56          C57          C58          C59          C60     
 Charge   -0.06983     -0.18978     -0.12549     -0.15430     -0.08026
   
 Atom       C61          C62          C63          C64          C65     
 Charge   -0.11604     -0.15227     -0.09679     -0.18012     -0.20618
   
 Atom       C66          C67          C68          C69          C70     
 Charge    0.30745     -0.06216     -0.20826     -0.07233     -0.21804
   
 Atom       N71          S72          O73          O74          C75     
 Charge   -0.31532      0.65290     -0.45036     -0.39211      0.46507
   
 Atom       C76          C77          C78          C79          N80     
 Charge   -0.35698      0.15860     -0.38550      0.35606     -0.54998
   
 Atom       N81          C82          C83          C84          C85     
 Charge   -0.06682      0.07274     -0.24685     -0.16860     -0.05379
   
 Atom       H86          H87          H88          H89          H90     
 Charge    0.10538      0.14035      0.13786      0.18091      0.12009
   
 Atom       H91          H92          H93          H94          H95     
 Charge    0.11034      0.19739      0.13794      0.13640      0.12098
   
 Atom       H96          H97          H98          H99          H100    
 Charge    0.46460      0.12382      0.12615      0.11014      0.09277
   
 Atom       H101         H102         H103         H104         H105    
 Charge    0.01309      0.15687      0.13996      0.11914      0.08584
   
 Atom       H106         H107         H108         H109         H110    
 Charge    0.13716      0.11393      0.13427      0.12637      0.12430
   
 Atom       H111         H112         H113         H114         H115    
 Charge    0.11087      0.12373      0.12260      0.12603      0.11379
   
 Atom       H116         H117         H118         H119         H120    
 Charge    0.11529      0.11434      0.12055      0.06955      0.12913
   
 Atom       H121         H122         H123         H124         H125    
 Charge    0.12317      0.12673      0.11303      0.11988      0.12536
   
 Atom       H126         H127         H128         H129         H130    
 Charge    0.11679      0.14674      0.14647      0.11397      0.14114
   
 Atom       H131         H132         H133         H134         H135    
 Charge    0.12143      0.14405      0.17664      0.10526      0.17902
   
 Atom       H136         H137         H138         H139         H140    
 Charge    0.05443      0.25709      0.12463      0.16883      0.17633
   
 Atom       H141    
 Charge    0.19870
  
  sum of atomic charges:     0.000000
   
 RMS Error   9.20E-04 hartrees
 
  Peak memory usage:    583 Mb
  
  end of program ch
   
 Time(ch)  user:       18.0  user+sys:       19.0  wallclock:       24.1
  
  start of program post
  
  Writing input files for PBF
  Peak memory usage:    534 Mb
  
  end of program post
   
 Time(post)  user:        0.0  user+sys:        0.0  wallclock:        0.5

  start of program pbf

Pbf Version 4.00

Molecular surface area:      841.22236   [A2]
Reaction field energy:       -16.27562   [kT]
  Peak memory usage: 557 Mb

  end of program pbf

 Time(pbf)  user:       18.8  user+sys:       18.9  wallclock:       29.0
  
  start of program solv
  
   number of surface charges from PBF   13324
   sum of surface charges     -0.00045
   
  nuclear repulsion energy.......   17185.236525499 hartrees
  Peak memory usage:    694 Mb
  
  end of program solv
   
 Time(solv)  user:       36.0  user+sys:       36.0  wallclock:       70.2
  
  start of program scf
  
  
       i  u  d  i  g                   
       t  p  i  c  r                                 RMS    maximum
       e  d  i  u  i                       energy  density   DIIS  
       r  t  s  t  d       total energy    change  change    error 
  
etot    1  N  N  1  U   -4711.55859373348           7.7E-06  1.2E-04
etot    2  N  N  1  U   -4711.55857032447 -2.3E-05  0.0E+00  0.0E+00
  
  
 Energy components, in hartrees:
   (A)  Total zero-electron terms....   17188.11022531544
   (B)    Nuclear-nuclear............   17185.23652549899
   (C)    Nuclear-solvent............       2.87369981645
   (E)  Total one-electron terms.....  -40718.95358988881
   (F)    Electron-nuclear...........  -45390.50704420554
   (G)    Electron-solvent...........      -2.90831810400
   (H)    Kinetic....................    4674.46177242073
   (I)  Total two-electron terms.....   18819.28479424891
   (J)    Coulomb....................   19394.42256193031
   (K)    Exchange+Correlation.......    -575.13776768140
   (L)  Electronic energy............  -21899.66879563990  (E+I)
   (N)  Total quantum mech. energy...   -4711.55857032447  (A+L)
   (O)  Gas phase energy.............   -4711.52510792894
   (P)  Solution phase energy........   -4711.54126118069  (Q+R+S)
   (Q)    Total solute energy........   -4711.52395203691  (N-C-G)
   (R)    Total solvent energy.......      -0.01730914378  (C/2+G/2)
   (S)    Solute cavity energy.......       0.00000000000
   (U)  Reorganization energy........       0.00115589203  (Q-O)
   (V)  Solvation energy.............      -0.01615325175  (P-O)
  
 SCFE:  Solution phase energy: DFT(b3lyp)      -4711.54126118069 hartrees
        SCF iterations:   2
  
 
 HOMO energy:    -0.21182
 LUMO energy:    -0.08236
 
  Orbital energies (hartrees): 
   -46.02257   -44.91104   -37.59185   -31.69196   -27.37359   -25.02725
   -24.94782   -20.41271   -19.44597   -18.89494   -18.31397   -17.77577
   -17.33743   -17.32635   -17.06109   -15.83853   -15.66764   -15.15094
   -14.86127   -14.50358   -13.83555   -13.79943   -13.73745   -12.81081
   -12.78674   -12.65128   -12.15175   -11.96204   -11.60287   -11.17143
   -11.15200   -11.11127   -10.98057   -10.97668   -10.89633   -10.87606
   -10.74593   -10.72063   -10.61303   -10.51193   -10.45687   -10.43115
   -10.42359   -10.42242   -10.38352   -10.37836   -10.34661   -10.34352
   -10.32780   -10.30053   -10.27883   -10.22962   -10.22860   -10.22512
   -10.20999   -10.20424   -10.19776   -10.19745   -10.17393   -10.16367
   -10.15639   -10.15307   -10.15302   -10.14423   -10.14125   -10.12903
   -10.12757   -10.12597   -10.11560   -10.07803   -10.06935   -10.06749
   -10.02417    -9.94099    -9.92768    -9.91587    -9.89995    -9.87496
    -9.84720    -9.81484    -9.72374    -9.69291    -9.68941    -9.62126
    -9.61306    -9.56625    -9.50227    -9.27541    -9.07395    -9.05560
    -8.90881    -8.61748    -8.25179    -7.34397    -6.45723    -6.33080
    -6.16002    -6.10606    -4.74838    -4.71797    -4.39337    -1.28661
    -1.02790    -0.92629    -0.86947    -0.86405    -0.84537    -0.82061
    -0.80890    -0.80020    -0.79990    -0.79760    -0.79268    -0.78811
    -0.78664    -0.78340    -0.78260    -0.77910    -0.77049    -0.76219
    -0.76211    -0.76056    -0.75262    -0.74210    -0.74069    -0.73456
    -0.73234    -0.73041    -0.72022    -0.71797    -0.71456    -0.70777
    -0.69560    -0.69501    -0.68701    -0.68420    -0.67731    -0.67290
    -0.67006    -0.66803    -0.66466    -0.66108    -0.64437    -0.63763
    -0.62880    -0.62305    -0.62019    -0.61851    -0.60255    -0.60216
    -0.60083    -0.59815    -0.59706    -0.59390    -0.58387    -0.58294
    -0.58061    -0.58023    -0.57920    -0.57500    -0.57423    -0.57278
    -0.56909    -0.56747    -0.56483    -0.55717    -0.55670    -0.55347
    -0.55301    -0.54970    -0.54570    -0.54504    -0.54169    -0.54044
    -0.53899    -0.53846    -0.53538    -0.53393    -0.53336    -0.53169
    -0.53036    -0.52104    -0.51216    -0.51153    -0.51138    -0.51084
    -0.50642    -0.50564    -0.49797    -0.49548    -0.49324    -0.48680
    -0.48550    -0.48408    -0.47956    -0.47852    -0.47753    -0.47729
    -0.47708    -0.47672    -0.47579    -0.47518    -0.47461    -0.47248
    -0.47212    -0.47068    -0.46974    -0.46680    -0.46487    -0.46425
    -0.46398    -0.46308    -0.45895    -0.45837    -0.45835    -0.45533
    -0.45365    -0.45312    -0.44833    -0.44526    -0.44517    -0.44478
    -0.44431    -0.44365    -0.44274    -0.44178    -0.43693    -0.43605
    -0.43281    -0.43215    -0.43072    -0.42999    -0.42763    -0.42735
    -0.42525    -0.42387    -0.42210    -0.42065    -0.41677    -0.41610
    -0.41588    -0.40831    -0.40752    -0.40741    -0.40494    -0.40339
    -0.40269    -0.40190    -0.40149    -0.40040    -0.40004    -0.39829
    -0.39725    -0.39522    -0.39493    -0.39445    -0.39380    -0.39330
    -0.38918    -0.38704    -0.38677    -0.38664    -0.38568    -0.38452
    -0.38182    -0.37939    -0.37523    -0.37356    -0.37069    -0.36924
    -0.36699    -0.36646    -0.36616    -0.36164    -0.35821    -0.35765
    -0.35664    -0.34994    -0.34866    -0.34531    -0.34256    -0.34042
    -0.33615    -0.33193    -0.32994    -0.32693    -0.31002    -0.30995
    -0.30751    -0.30539    -0.29138    -0.28854    -0.28584    -0.27411
    -0.27286    -0.26181    -0.26023    -0.25836    -0.25742    -0.25696
    -0.25158    -0.25018    -0.24985    -0.24619    -0.24122    -0.23780
    -0.23724    -0.21182    -0.08236    -0.05073    -0.04245    -0.03605
    -0.02744    -0.01386    -0.01162    -0.01002    -0.00928    -0.00741
 
  Peak memory usage:    839 Mb
  
  end of program scf
   
 Time(scf)  user:      704.0  user+sys:      713.0  wallclock:     1128.0
  
  start of program sole
  
    SCRF                   solvation energy
  iteration          Hartrees            kcal/mol
     0               0.0000000            0.0000
     1              -0.0152632           -9.5778
     2              -0.0161533          -10.1363
  
  solvation energy not yet converged... 
  
  Peak memory usage:    634 Mb
  
  end of program sole
   
 Time(sole)  user:        0.0  user+sys:        0.0  wallclock:        0.4
  
  start of program ch
  
  gridpoints used for charge fit        16612
    out of a possible maximum of        16612
  
   Electrostatic potential fitting constrained to reproduce
     total charge:                yes
     dipole moment:               no 
     traceless quadrupole moment: no 
     traceless octapole moment:   no 
  
  Atomic charges from electrostatic potential: 
   
 Atom       C1           C2           C3           C4           C5      
 Charge   -0.07987     -0.05245     -0.19438      0.21316      0.13951
   
 Atom       C6           C7           C8           C9           C10     
 Charge   -0.23374     -0.38290     -0.08038     -0.03243     -0.16241
   
 Atom       C11          O12          Si13         C14          C15     
 Charge    0.15121     -0.23328     -0.09889      0.07314      0.14376
   
 Atom       C16          C17          C18          C19          C20     
 Charge    0.23960     -0.13077     -0.43378     -0.23727      0.14258
   
 Atom       Si21         O22          C23          C24          P25     
 Charge   -0.19588     -0.34974     -0.16872     -0.09791      1.06521
   
 Atom       O26          O27          C28          C29          C30     
 Charge   -0.65353     -0.72547      0.16691      0.09228      0.03428
   
 Atom       C31          C32          C33          C34          C35     
 Charge    0.30207      0.12368      0.22137     -0.15212     -0.15951
   
 Atom       C36          C37          C38          C39          C40     
 Charge   -0.13340     -0.14224     -0.02696     -0.21538     -0.25929
   
 Atom       C41          C42          C43          C44          C45     
 Charge   -0.14790     -0.13681     -0.21315     -0.19728     -0.20648
   
 Atom       C46          C47          C48          C49          C50     
 Charge   -0.13170     -0.15267     -0.10151     -0.13466     -0.12573
   
 Atom       C51          C52          C53          C54          C55     
 Charge   -0.13723     -0.14490     -0.10829     -0.08811     -0.14409
   
 Atom       C56          C57          C58          C59          C60     
 Charge   -0.07018     -0.18991     -0.12627     -0.15388     -0.08036
   
 Atom       C61          C62          C63          C64          C65     
 Charge   -0.11643     -0.15199     -0.09619     -0.17827     -0.20693
   
 Atom       C66          C67          C68          C69          C70     
 Charge    0.30637     -0.06408     -0.20905     -0.06990     -0.22253
   
 Atom       N71          S72          O73          O74          C75     
 Charge   -0.31681      0.64886     -0.45089     -0.38855      0.46152
   
 Atom       C76          C77          C78          C79          N80     
 Charge   -0.35608      0.16058     -0.38329      0.35618     -0.55349
   
 Atom       N81          C82          C83          C84          C85     
 Charge   -0.06836      0.07834     -0.24388     -0.16753     -0.05564
   
 Atom       H86          H87          H88          H89          H90     
 Charge    0.10574      0.14098      0.13814      0.18186      0.12078
   
 Atom       H91          H92          H93          H94          H95     
 Charge    0.11026      0.19812      0.13839      0.13697      0.12162
   
 Atom       H96          H97          H98          H99          H100    
 Charge    0.46414      0.12404      0.12593      0.11011      0.09271
   
 Atom       H101         H102         H103         H104         H105    
 Charge    0.01407      0.15754      0.14069      0.11871      0.08540
   
 Atom       H106         H107         H108         H109         H110    
 Charge    0.13717      0.11407      0.13409      0.12716      0.12536
   
 Atom       H111         H112         H113         H114         H115    
 Charge    0.11139      0.12439      0.12331      0.12681      0.11366
   
 Atom       H116         H117         H118         H119         H120    
 Charge    0.11562      0.11474      0.12053      0.07049      0.12996
   
 Atom       H121         H122         H123         H124         H125    
 Charge    0.12390      0.12735      0.11370      0.12077      0.12606
   
 Atom       H126         H127         H128         H129         H130    
 Charge    0.11713      0.14734      0.14726      0.11398      0.14181
   
 Atom       H131         H132         H133         H134         H135    
 Charge    0.12145      0.14461      0.17655      0.10637      0.18014
   
 Atom       H136         H137         H138         H139         H140    
 Charge    0.05527      0.25625      0.12429      0.16915      0.17655
   
 Atom       H141    
 Charge    0.19819
  
  sum of atomic charges:     0.000000
   
 RMS Error   9.21E-04 hartrees
 
  Peak memory usage:    583 Mb
  
  end of program ch
   
 Time(ch)  user:       18.0  user+sys:       19.0  wallclock:       33.3
  
  start of program post
  
  Writing input files for PBF
  Peak memory usage:    534 Mb
  
  end of program post
   
 Time(post)  user:        0.0  user+sys:        0.0  wallclock:        0.5

  start of program pbf

Pbf Version 4.00

Molecular surface area:      841.22236   [A2]
Reaction field energy:       -16.60268   [kT]
  Peak memory usage: 557 Mb

  end of program pbf

 Time(pbf)  user:       17.9  user+sys:       17.9  wallclock:       27.2
  
  start of program solv
  
   number of surface charges from PBF   13324
   sum of surface charges     -0.00046
   
  nuclear repulsion energy.......   17185.236525499 hartrees
  Peak memory usage:    694 Mb
  
  end of program solv
   
 Time(solv)  user:       35.0  user+sys:       35.0  wallclock:       65.9
  
  start of program scf
  
  
       i  u  d  i  g                   
       t  p  i  c  r                                 RMS    maximum
       e  d  i  u  i                       energy  density   DIIS  
       r  t  s  t  d       total energy    change  change    error 
  
etot    1  N  N  1  U   -4711.55890513569           1.4E-05  2.2E-04
etot    2  N  Y  1  U   -4711.55873523260 -1.7E-04  9.7E-06  5.8E-04
etot    3  N  Y  1  U   -4711.55893593530  2.0E-04  4.7E-07  1.5E-05
etot    4  N  N  1  U   -4711.55893599725  6.2E-08  0.0E+00  0.0E+00
  
  
 Energy components, in hartrees:
   (A)  Total zero-electron terms....   17188.17775690295
   (B)    Nuclear-nuclear............   17185.23652549899
   (C)    Nuclear-solvent............       2.94123140395
   (E)  Total one-electron terms.....  -40718.75021058569
   (F)    Electron-nuclear...........  -45390.22151873874
   (G)    Electron-solvent...........      -2.97609488312
   (H)    Kinetic....................    4674.44740303617
   (I)  Total two-electron terms.....   18819.01351768549
   (J)    Coulomb....................   19394.14949043965
   (K)    Exchange+Correlation.......    -575.13597275416
   (L)  Electronic energy............  -21899.73669290020  (E+I)
   (N)  Total quantum mech. energy...   -4711.55893599725  (A+L)
   (O)  Gas phase energy.............   -4711.52510792894
   (P)  Solution phase energy........   -4711.54150425767  (Q+R+S)
   (Q)    Total solute energy........   -4711.52407251808  (N-C-G)
   (R)    Total solvent energy.......      -0.01743173959  (C/2+G/2)
   (S)    Solute cavity energy.......       0.00000000000
   (U)  Reorganization energy........       0.00103541086  (Q-O)
   (V)  Solvation energy.............      -0.01639632873  (P-O)
  
 SCFE:  Solution phase energy: DFT(b3lyp)      -4711.54150425767 hartrees
        SCF iterations:   4
  
 
 HOMO energy:    -0.20205
 LUMO energy:    -0.08324
 
  Orbital energies (hartrees): 
   -89.11510   -77.21572   -66.10981   -66.10910   -19.17983   -19.17482
   -19.15021   -19.14604   -19.09551   -19.09253   -14.37865   -14.36720
   -14.36094   -10.27852   -10.26310   -10.25059   -10.24801   -10.24612
   -10.24187   -10.22944   -10.22778   -10.22178   -10.21987   -10.21073
   -10.20553   -10.20295   -10.20246   -10.20008   -10.19914   -10.19794
   -10.19746   -10.19702   -10.19590   -10.19530   -10.19409   -10.19335
   -10.19328   -10.19100   -10.18843   -10.18786   -10.18747   -10.18715
   -10.18667   -10.18659   -10.18649   -10.18639   -10.18633   -10.18577
   -10.18576   -10.18552   -10.18545   -10.18535   -10.18522   -10.18508
   -10.18487   -10.18485   -10.18477   -10.18451   -10.18417   -10.18407
   -10.18366   -10.18364   -10.18354   -10.18338   -10.18217   -10.18094
   -10.18006   -10.17902   -10.17792   -10.17707   -10.17679   -10.17611
   -10.17407   -10.17347   -10.17345   -10.17190   -10.17164   -10.17158
   -10.16960   -10.16876   -10.16847   -10.16823   -10.16768   -10.16270
   -10.16098    -8.14061    -6.65986    -6.10559    -6.10482    -6.10353
    -5.25631    -5.25586    -4.82478    -4.82340    -4.82141    -3.61533
    -3.61494    -3.61486    -3.61465    -3.61461    -3.61405    -1.11593
    -1.08663    -1.04506    -1.00758    -0.99010    -0.97210    -0.96958
    -0.94005    -0.92307    -0.87098    -0.86185    -0.85776    -0.84026
    -0.83940    -0.83677    -0.83562    -0.83071    -0.82558    -0.82510
    -0.81481    -0.80505    -0.79536    -0.78998    -0.78590    -0.77555
    -0.75235    -0.75170    -0.74583    -0.74450    -0.73986    -0.73819
    -0.73770    -0.73703    -0.73607    -0.73218    -0.73184    -0.73140
    -0.72992    -0.72857    -0.72637    -0.72539    -0.72500    -0.72126
    -0.70260    -0.70230    -0.66798    -0.65344    -0.64311    -0.62270
    -0.61880    -0.61213    -0.60965    -0.60711    -0.60354    -0.59732
    -0.59630    -0.59303    -0.59245    -0.59171    -0.59029    -0.58915
    -0.58707    -0.58336    -0.58126    -0.57999    -0.57964    -0.57827
    -0.57633    -0.57344    -0.57189    -0.56263    -0.56179    -0.54995
    -0.53890    -0.53498    -0.52870    -0.52411    -0.52144    -0.51632
    -0.50467    -0.50373    -0.50346    -0.50090    -0.49961    -0.49778
    -0.49465    -0.49256    -0.49077    -0.48331    -0.47087    -0.46918
    -0.46689    -0.46552    -0.46375    -0.46068    -0.45688    -0.45279
    -0.45072    -0.45002    -0.44611    -0.44578    -0.44344    -0.44102
    -0.44048    -0.43784    -0.43661    -0.43634    -0.43356    -0.43341
    -0.43229    -0.43153    -0.43136    -0.42778    -0.42638    -0.42517
    -0.42390    -0.42358    -0.42214    -0.42150    -0.42010    -0.41962
    -0.41795    -0.41581    -0.41486    -0.41389    -0.41313    -0.41088
    -0.40853    -0.40802    -0.40466    -0.40183    -0.40155    -0.39820
    -0.39591    -0.39219    -0.38718    -0.38384    -0.38244    -0.38012
    -0.37713    -0.37407    -0.37002    -0.36694    -0.36338    -0.36188
    -0.35910    -0.35785    -0.35540    -0.35471    -0.35101    -0.35053
    -0.35051    -0.34836    -0.34476    -0.34272    -0.34126    -0.33806
    -0.33603    -0.33425    -0.33294    -0.33287    -0.33183    -0.33056
    -0.32745    -0.32619    -0.32374    -0.32118    -0.32071    -0.31710
    -0.31576    -0.31150    -0.31045    -0.30603    -0.30328    -0.30002
    -0.29289    -0.28905    -0.28634    -0.28550    -0.28503    -0.28377
    -0.28227    -0.27942    -0.27880    -0.27356    -0.27029    -0.26543
    -0.26017    -0.25555    -0.25434    -0.25118    -0.24885    -0.24697
    -0.24615    -0.24450    -0.24304    -0.24202    -0.23999    -0.23657
    -0.23500    -0.23389    -0.23300    -0.23093    -0.22623    -0.22528
    -0.21805    -0.20205    -0.08324    -0.05141    -0.04282    -0.03649
    -0.02780    -0.01428    -0.01211    -0.01039    -0.00962    -0.00784
 
  Peak memory usage:    839 Mb
  
  end of program scf
   
 Time(scf)  user:     2019.0  user+sys:     2041.0  wallclock:     3293.4
  
  start of program sole
  
    SCRF                   solvation energy
  iteration          Hartrees            kcal/mol
     0               0.0000000            0.0000
     1              -0.0152632           -9.5778
     2              -0.0161533          -10.1363
     3              -0.0163963          -10.2889
  
  solvation energy not yet converged... 
  
  Peak memory usage:    634 Mb
  
  end of program sole
   
 Time(sole)  user:        0.0  user+sys:        0.0  wallclock:        0.4
  
  start of program ch
  
  gridpoints used for charge fit        16612
    out of a possible maximum of        16612
  
   Electrostatic potential fitting constrained to reproduce
     total charge:                yes
     dipole moment:               no 
     traceless quadrupole moment: no 
     traceless octapole moment:   no 
  
  Atomic charges from electrostatic potential: 
   
 Atom       C1           C2           C3           C4           C5      
 Charge   -0.07954     -0.05269     -0.19478      0.21316      0.13937
   
 Atom       C6           C7           C8           C9           C10     
 Charge   -0.23361     -0.38328     -0.08084     -0.03148     -0.16187
   
 Atom       C11          O12          Si13         C14          C15     
 Charge    0.15177     -0.23355     -0.09798      0.07273      0.14406
   
 Atom       C16          C17          C18          C19          C20     
 Charge    0.23945     -0.13027     -0.43393     -0.23732      0.14329
   
 Atom       Si21         O22          C23          C24          P25     
 Charge   -0.19598     -0.34993     -0.16925     -0.09824      1.06602
   
 Atom       O26          O27          C28          C29          C30     
 Charge   -0.65422     -0.72583      0.16816      0.09293      0.03468
   
 Atom       C31          C32          C33          C34          C35     
 Charge    0.30262      0.12437      0.22240     -0.15199     -0.15827
   
 Atom       C36          C37          C38          C39          C40     
 Charge   -0.13335     -0.14141     -0.02626     -0.21489     -0.25907
   
 Atom       C41          C42          C43          C44          C45     
 Charge   -0.14829     -0.13678     -0.21287     -0.19723     -0.20617
   
 Atom       C46          C47          C48          C49          C50     
 Charge   -0.13187     -0.15363     -0.10260     -0.13488     -0.12614
   
 Atom       C51          C52          C53          C54          C55     
 Charge   -0.13776     -0.14429     -0.10899     -0.08909     -0.14390
   
 Atom       C56          C57          C58          C59          C60     
 Charge   -0.07034     -0.19015     -0.12626     -0.15431     -0.08056
   
 Atom       C61          C62          C63          C64          C65     
 Charge   -0.11649     -0.15256     -0.09651     -0.17989     -0.20648
   
 Atom       C66          C67          C68          C69          C70     
 Charge    0.30730     -0.06256     -0.20966     -0.07132     -0.21828
   
 Atom       N71          S72          O73          O74          C75     
 Charge   -0.31440      0.65168     -0.45194     -0.39110      0.46342
   
 Atom       C76          C77          C78          C79          N80     
 Charge   -0.35668      0.15944     -0.38495      0.35644     -0.55238
   
 Atom       N81          C82          C83          C84          C85     
 Charge   -0.06690      0.07431     -0.24584     -0.16834     -0.05572
   
 Atom       H86          H87          H88          H89          H90     
 Charge    0.10553      0.14096      0.13806      0.18156      0.12078
   
 Atom       H91          H92          H93          H94          H95     
 Charge    0.11014      0.19787      0.13833      0.13697      0.12161
   
 Atom       H96          H97          H98          H99          H100    
 Charge    0.46438      0.12397      0.12570      0.10994      0.09239
   
 Atom       H101         H102         H103         H104         H105    
 Charge    0.01360      0.15732      0.14062      0.11873      0.08522
   
 Atom       H106         H107         H108         H109         H110    
 Charge    0.13705      0.11387      0.13416      0.12708      0.12540
   
 Atom       H111         H112         H113         H114         H115    
 Charge    0.11143      0.12431      0.12327      0.12674      0.11346
   
 Atom       H116         H117         H118         H119         H120    
 Charge    0.11561      0.11476      0.12059      0.07025      0.12980
   
 Atom       H121         H122         H123         H124         H125    
 Charge    0.12381      0.12733      0.11361      0.12065      0.12606
   
 Atom       H126         H127         H128         H129         H130    
 Charge    0.11709      0.14756      0.14689      0.11381      0.14166
   
 Atom       H131         H132         H133         H134         H135    
 Charge    0.12169      0.14369      0.17648      0.10648      0.18028
   
 Atom       H136         H137         H138         H139         H140    
 Charge    0.05499      0.25689      0.12476      0.16961      0.17675
   
 Atom       H141    
 Charge    0.19881
  
  sum of atomic charges:     0.000000
   
 RMS Error   9.22E-04 hartrees
 
  Peak memory usage:    583 Mb
  
  end of program ch
   
 Time(ch)  user:       17.0  user+sys:       18.0  wallclock:       30.4
  
  start of program post
  
  Writing input files for PBF
  Peak memory usage:    534 Mb
  
  end of program post
   
 Time(post)  user:        0.0  user+sys:        0.0  wallclock:        0.3

  start of program pbf

Pbf Version 4.00

Molecular surface area:      841.22236   [A2]
Reaction field energy:       -16.51488   [kT]
  Peak memory usage: 557 Mb

  end of program pbf

 Time(pbf)  user:       20.0  user+sys:       20.1  wallclock:       40.9
  
  start of program solv
  
   number of surface charges from PBF   13324
   sum of surface charges     -0.00046
   
  nuclear repulsion energy.......   17185.236525499 hartrees
  Peak memory usage:    694 Mb
  
  end of program solv
   
 Time(solv)  user:       36.0  user+sys:       36.0  wallclock:       51.9
  
  start of program scf
  
  
       i  u  d  i  g                   
       t  p  i  c  r                                 RMS    maximum
       e  d  i  u  i                       energy  density   DIIS  
       r  t  s  t  d       total energy    change  change    error 
  
etot    1  N  N  1  U   -4711.55885223547           8.7E-07  1.4E-05
etot    2  N  N  1  U   -4711.55885217139 -6.4E-08  0.0E+00  0.0E+00
  
  
 Energy components, in hartrees:
   (A)  Total zero-electron terms....   17188.15515190743
   (B)    Nuclear-nuclear............   17185.23652549899
   (C)    Nuclear-solvent............       2.91862640844
   (E)  Total one-electron terms.....  -40718.68352988062
   (F)    Electron-nuclear...........  -45390.17691161546
   (G)    Electron-solvent...........      -2.95338125404
   (H)    Kinetic....................    4674.44676298888
   (I)  Total two-electron terms.....   18818.96952580180
   (J)    Coulomb....................   19394.10541544852
   (K)    Exchange+Correlation.......    -575.13588964672
   (L)  Electronic energy............  -21899.71400407882  (E+I)
   (N)  Total quantum mech. energy...   -4711.55885217139  (A+L)
   (O)  Gas phase energy.............   -4711.52510792894
   (P)  Solution phase energy........   -4711.54147474859  (Q+R+S)
   (Q)    Total solute energy........   -4711.52409732579  (N-C-G)
   (R)    Total solvent energy.......      -0.01737742280  (C/2+G/2)
   (S)    Solute cavity energy.......       0.00000000000
   (U)  Reorganization energy........       0.00101060315  (Q-O)
   (V)  Solvation energy.............      -0.01636681965  (P-O)
  
 SCFE:  Solution phase energy: DFT(b3lyp)      -4711.54147474859 hartrees
        SCF iterations:   2
  
 
 HOMO energy:    -0.20209
 LUMO energy:    -0.08329
 
  Orbital energies (hartrees): 
   -89.11522   -77.21579   -66.10993   -66.10927   -19.17993   -19.17483
   -19.15071   -19.14569   -19.09553   -19.09249   -14.37875   -14.36696
   -14.36118   -10.27850   -10.26331   -10.25071   -10.24808   -10.24612
   -10.24195   -10.22966   -10.22757   -10.22176   -10.21965   -10.21075
   -10.20569   -10.20302   -10.20244   -10.20007   -10.19914   -10.19799
   -10.19738   -10.19699   -10.19597   -10.19541   -10.19418   -10.19347
   -10.19327   -10.19116   -10.18830   -10.18800   -10.18749   -10.18708
   -10.18664   -10.18653   -10.18639   -10.18630   -10.18627   -10.18586
   -10.18563   -10.18557   -10.18540   -10.18534   -10.18528   -10.18505
   -10.18494   -10.18478   -10.18461   -10.18448   -10.18423   -10.18403
   -10.18376   -10.18358   -10.18351   -10.18337   -10.18232   -10.18093
   -10.18011   -10.17882   -10.17785   -10.17707   -10.17690   -10.17609
   -10.17422   -10.17362   -10.17338   -10.17189   -10.17184   -10.17152
   -10.16985   -10.16891   -10.16864   -10.16846   -10.16791   -10.16293
   -10.16100    -8.14071    -6.65993    -6.10569    -6.10492    -6.10364
    -5.25644    -5.25603    -4.82486    -4.82347    -4.82148    -3.61546
    -3.61506    -3.61503    -3.61478    -3.61478    -3.61422    -1.11599
    -1.08669    -1.04513    -1.00764    -0.99020    -0.97219    -0.96962
    -0.94002    -0.92309    -0.87102    -0.86187    -0.85779    -0.84031
    -0.83942    -0.83680    -0.83565    -0.83071    -0.82560    -0.82503
    -0.81481    -0.80507    -0.79538    -0.79006    -0.78597    -0.77556
    -0.75237    -0.75173    -0.74586    -0.74454    -0.73991    -0.73820
    -0.73777    -0.73707    -0.73609    -0.73219    -0.73188    -0.73144
    -0.72993    -0.72858    -0.72639    -0.72540    -0.72503    -0.72129
    -0.70264    -0.70231    -0.66798    -0.65343    -0.64315    -0.62272
    -0.61885    -0.61215    -0.60969    -0.60713    -0.60358    -0.59737
    -0.59634    -0.59307    -0.59247    -0.59174    -0.59032    -0.58917
    -0.58710    -0.58337    -0.58133    -0.58002    -0.57967    -0.57830
    -0.57634    -0.57347    -0.57193    -0.56268    -0.56183    -0.54997
    -0.53894    -0.53499    -0.52875    -0.52415    -0.52144    -0.51634
    -0.50468    -0.50374    -0.50346    -0.50092    -0.49961    -0.49780
    -0.49466    -0.49257    -0.49078    -0.48333    -0.47090    -0.46922
    -0.46693    -0.46552    -0.46377    -0.46071    -0.45693    -0.45284
    -0.45073    -0.45005    -0.44613    -0.44579    -0.44347    -0.44105
    -0.44054    -0.43787    -0.43665    -0.43638    -0.43359    -0.43343
    -0.43232    -0.43156    -0.43140    -0.42779    -0.42641    -0.42519
    -0.42389    -0.42358    -0.42214    -0.42152    -0.42012    -0.41964
    -0.41798    -0.41584    -0.41487    -0.41392    -0.41316    -0.41090
    -0.40853    -0.40804    -0.40469    -0.40189    -0.40159    -0.39825
    -0.39589    -0.39222    -0.38721    -0.38387    -0.38247    -0.38015
    -0.37715    -0.37409    -0.37005    -0.36695    -0.36341    -0.36191
    -0.35912    -0.35788    -0.35543    -0.35474    -0.35104    -0.35057
    -0.35053    -0.34838    -0.34478    -0.34274    -0.34129    -0.33808
    -0.33603    -0.33429    -0.33296    -0.33290    -0.33186    -0.33059
    -0.32750    -0.32622    -0.32376    -0.32114    -0.32074    -0.31713
    -0.31579    -0.31153    -0.31046    -0.30605    -0.30333    -0.30008
    -0.29296    -0.28910    -0.28643    -0.28555    -0.28508    -0.28384
    -0.28233    -0.27947    -0.27885    -0.27362    -0.27033    -0.26545
    -0.26019    -0.25557    -0.25438    -0.25122    -0.24889    -0.24699
    -0.24618    -0.24453    -0.24307    -0.24207    -0.24002    -0.23660
    -0.23504    -0.23393    -0.23302    -0.23097    -0.22627    -0.22531
    -0.21807    -0.20209    -0.08329    -0.05141    -0.04286    -0.03647
    -0.02784    -0.01432    -0.01215    -0.01042    -0.00966    -0.00788
 
  Peak memory usage:    839 Mb
  
  end of program scf
   
 Time(scf)  user:      691.0  user+sys:      700.0  wallclock:     1142.3
  
  start of program sole
  
    SCRF                   solvation energy
  iteration          Hartrees            kcal/mol
     0               0.0000000            0.0000
     1              -0.0152632           -9.5778
     2              -0.0161533          -10.1363
     3              -0.0163963          -10.2889
     4              -0.0163668          -10.2703
  
  stopping: solvation energy converged
  
  iterations:   4    sfinal:    -10.2703 kcal/mol
  
  Peak memory usage:    634 Mb
  
  end of program sole
   
 Time(sole)  user:        0.0  user+sys:        0.0  wallclock:        0.9
  
  start of program post
  
  Writing input files for PBF
  Peak memory usage:    534 Mb
  
  end of program post
   
 Time(post)  user:        0.0  user+sys:        0.0  wallclock:        0.6

 Total cpu seconds     user:   15983.000   user+sys:   16163.000
  
 Total elapsed time:    27159 seconds

Job B3LYP-SPE-Toru-SiPh3-Type-I-E-6-chkp-unrestrained completed on tethys at Fri Nov 25 21:37:37 2016
