Job Type-II-Z-sulfonyl-bind-4-chkp-2-scan-unrestrained-IRC-max-disp-SPE started on tethys at Fri Mar 24 13:23:50 2017
jobid: tethys-0-58d51de3

  +--------------------------------------------------------------------+
  |  Jaguar version 9.5, release  11                                   |
  |                                                                    |
  |  Copyright Schrodinger, Inc.                                       |
  |  All Rights Reserved.                                              |
  |                                                                    |
  |  The following have contributed to Jaguar (listed alphabetically): |
  |  Mike Beachy, Art Bochevarov, Dale Braden, Yixiang Cao,            |
  |  Chris Cortis, Rich Friesner, Bill Goddard, Hod Greeley,           |
  |  Tom Hughes, Leif Jacobson, Jean-Marc Langlois,                    |
  |  Daniel Mainz, Rob Murphy, Dean Philipp, Tom Pollard,              |
  |  Murco Ringnalda, Mark Watson, Haoyu Yu.                           |
  |                                                                    |
  |  Use of this program should be acknowledged in publications as:    |
  |                                                                    |
  |  Jaguar, version 9.5, Schrodinger, Inc., New York, NY, 2017.       |
  |                                                                    |
  |  A. D. Bochevarov, E. Harder, T. F. Hughes, J. R. Greenwood,       |
  |  D. A. Braden, D. M. Philipp, D. Rinaldo, M. D. Halls,             |
  |  J. Zhang, R. A. Friesner, "Jaguar: A High-Performance Quantum     |
  |  Chemistry Software Program with Strengths in Life and Materials   |
  |  Sciences", Int. J. Quantum Chem., 2013, 113(18), 2110-2142.       |
  +--------------------------------------------------------------------+
  
  start of program pre
  
  Job name: Type-II-Z-sulfonyl-bind-4-chkp-2-scan-unrestrained-IRC-max-disp-SPE
  Executables used: /usr/local/shared/schrodinger/current/jaguar-v9.5/bin/Linux-x86_64
  Temporary files : /scratch/ab2144/Type-II-Z-sulfonyl-bind-4-chkp-2-scan-unrestrained-IRC-max-disp-SPE
  Maestro file (input):  Type-II-Z-sulfonyl-bind-4-chkp-2-scan-unrestrained-IRC-max-disp-SPE.mae
  Maestro file (output): Type-II-Z-sulfonyl-bind-4-chkp-2-scan-unrestrained-IRC-max-disp-SPE.01.mae
  
  basis set:             6-31g**                         
  net molecular charge:    0
  multiplicity:            1
  
  keygrid settings 
    wispc.....   7.500E-01
    ldens.....   0
    denspc....   7.500E-01
  
   grid     daf set  nls  grid set  Q type
  ------    -------  ---  --------  ------
  coarse       1      1       1        1
  medium       2      2       2        1
  fine         3      2       3        0
  ultrafine    4      2       4        1
  charge       0      1      -1        1
  gradient     5      2       4        1
  density      0      1       0        0
  DFT-fine     0      1     -13        0
  DFT-med.     0      1     -13        0
  DFT-grad     0      1     -13        0
  DFT-der2     0      1       0        0
  DFT-cphf     0      1       0        0
  LMP2-enrg    4      2       4        1
  LMP2-grad    5      2       2        1
  DFT-cphf2    0      1       0        0
  PBF-dens     0      1       0        0
  plotting     0      1       0        0
  Rel-grad     0      1     -17        0
  
  idftgrdm  100
  ndftgrdm   50    0    0
  idftgrdf  111
  ndftgrdf   85    0    0
  idftgrdg  111
  ndftgrdg   80    3    0
  idftgrdu  433
  ndftgrdu  105    0    0
  idftgrdd  433
  ndftgrdd  105    0    0
  idftgrdc  433
  ndftgrdc   26    0    0
  idftgrdp  433
  ndftgrdp   18    0    0
  
  number of basis functions....         1680
  
 Input geometry:
                                   angstroms
  atom               x                 y                 z
  C1            1.5874000000      2.8897000000     -0.7028000000 
  C2           -0.2097000000      4.9745000000     -0.0511000000 
  C3           -0.6929000000      3.5770000000     -0.0898000000 
  C4            0.1793000000      2.5706000000     -0.3151000000 
  H5           -0.8976000000      5.7759000000      0.1876000000 
  C6            4.5315000000     -0.0251000000     -1.8176000000 
  C7            3.9258000000     -0.1022000000     -0.6218000000 
  C8            2.7607000000      0.7786000000     -0.3378000000 
  C9            2.4745000000      1.7963000000     -1.1722000000 
  H10           5.4180000000     -0.6049000000     -2.0309000000 
  C11           2.0305000000      4.1677000000     -0.6149000000 
  C12           1.0781000000      5.2538000000     -0.2768000000 
  C13           1.5744000000      6.6434000000     -0.2191000000 
  C14           2.8651000000      6.9090000000     -0.4451000000 
  C15           3.8309000000      5.8325000000     -0.7496000000 
  C16           3.4512000000      4.5518000000     -0.8283000000 
  H17           0.8960000000      7.4574000000      0.0071000000 
  H18           3.2156000000      7.9321000000     -0.3978000000 
  H19           4.8711000000      6.0900000000     -0.9030000000 
  H20           4.2077000000      3.8042000000     -1.0271000000 
  C21           4.0606000000      0.9339000000     -2.8370000000 
  C22           3.0918000000      1.8249000000     -2.5299000000 
  C23           2.6235000000      2.7757000000     -3.5734000000 
  C24           3.1818000000      2.7714000000     -4.7894000000 
  C25           4.2615000000      1.8166000000     -5.1069000000 
  C26           4.6783000000      0.9437000000     -4.1831000000 
  H27           1.8215000000      3.4717000000     -3.3651000000 
  H28           2.8383000000      3.4643000000     -5.5466000000 
  H29           4.7115000000      1.8219000000     -6.0912000000 
  H30           5.4678000000      0.2429000000     -4.4245000000 
  Si31         -2.5085000000      3.2687000000      0.2224000000 
  Si32          4.7277000000     -1.0584000000      0.7677000000 
  C33          -4.0573000000      0.0832000000     -2.8513000000 
  C34          -4.5669000000      0.1076000000     -1.6153000000 
  C35          -4.0725000000      1.0903000000     -0.6284000000 
  C36          -3.1202000000      1.9739000000     -0.9714000000 
  C37          -2.5598000000      1.9388000000     -2.3455000000 
  C38          -3.0004000000      1.0392000000     -3.2324000000 
  H39          -4.4195000000     -0.6326000000     -3.5753000000 
  H40          -5.3418000000     -0.5934000000     -1.3336000000 
  H41          -4.5005000000      1.0799000000      0.3616000000 
  H42          -1.7848000000      2.6360000000     -2.6376000000 
  H43          -2.5850000000      1.0120000000     -4.2314000000 
  C44          -3.1272000000      2.0965000000      4.7204000000 
  C45          -4.1875000000      2.2995000000      3.9303000000 
  C46          -3.9956000000      2.6470000000      2.5078000000 
  C47          -2.7571000000      2.7737000000      2.0012000000 
  C48          -1.5866000000      2.5783000000      2.8912000000 
  C49          -1.7634000000      2.2441000000      4.1753000000 
  H50          -3.2666000000      1.8332000000      5.7608000000 
  H51          -5.1888000000      2.2039000000      4.3294000000 
  H52          -4.8685000000      2.8241000000      1.8925000000 
  H53          -0.5811000000      2.7050000000      2.5139000000 
  H54          -0.9073000000      2.0942000000      4.8203000000 
  C55          -4.7877000000      7.2623000000     -0.6944000000 
  C56          -4.2562000000      6.5469000000     -1.6920000000 
  C57          -3.5401000000      5.2877000000     -1.4007000000 
  C58          -3.4311000000      4.8459000000     -0.1361000000 
  C59          -4.0065000000      5.6549000000      0.9675000000 
  C60          -4.6515000000      6.7973000000      0.7002000000 
  H61          -5.3115000000      8.1855000000     -0.9060000000 
  H62          -4.3486000000      6.8887000000     -2.7148000000 
  H63          -3.1070000000      4.7349000000     -2.2232000000 
  H64          -3.8931000000      5.3444000000      1.9967000000 
  H65          -5.0658000000      7.3886000000      1.5066000000 
  C66           8.1678000000     -3.8066000000     -0.8830000000 
  C67           8.4243000000     -2.9428000000      0.1051000000 
  C68           7.3516000000     -2.0682000000      0.6234000000 
  C69           6.1071000000     -2.1433000000      0.1176000000 
  C70           5.8403000000     -3.0876000000     -0.9969000000 
  C71           6.8145000000     -3.8761000000     -1.4665000000 
  H72           8.9528000000     -4.4473000000     -1.2635000000 
  H73           9.4183000000     -2.8832000000      0.5293000000 
  H74           7.5986000000     -1.3763000000      1.4140000000 
  H75           4.8682000000     -3.1179000000     -1.4669000000 
  H76           6.6167000000     -4.5541000000     -2.2867000000 
  C77           1.7624000000     -3.8285000000      3.1225000000 
  C78           2.1115000000     -2.6416000000      3.6289000000 
  C79           2.9969000000     -1.7416000000      2.8630000000 
  C80           3.4716000000     -2.1135000000      1.6601000000 
  C81           3.0367000000     -3.4103000000      1.0860000000 
  C82           2.2305000000     -4.2222000000      1.7806000000 
  H83           1.1185000000     -4.4920000000      3.6853000000 
  H84           1.7533000000     -2.3413000000      4.6051000000 
  H85           3.2646000000     -0.7916000000      3.3037000000 
  H86           3.3676000000     -3.7194000000      0.1089000000 
  H87           1.9190000000     -5.1694000000      1.3595000000 
  C88           6.5063000000      2.0099000000      3.8457000000 
  C89           6.0302000000      2.4481000000      2.6747000000 
  C90           5.4748000000      1.4914000000      1.6952000000 
  C91           5.4389000000      0.1765000000      1.9767000000 
  C92           5.9762000000     -0.3018000000      3.2752000000 
  C93           6.4797000000      0.5675000000      4.1596000000 
  H94           6.9131000000      2.7102000000      4.5638000000 
  H95           6.0502000000      3.5049000000      2.4413000000 
  H96           5.1101000000      1.8764000000      0.7536000000 
  H97           5.9617000000     -1.3581000000      3.5130000000 
  H98           6.8690000000      0.2155000000      5.1061000000 
  O99          -0.2700000000      1.2723000000     -0.3244000000 
  O100          2.0620000000      0.6373000000      0.8345000000 
  P101          0.5034000000      0.1739000000      0.6213000000 
  O102         -0.1043000000      0.0614000000      1.9805000000 
  N103         -2.9922000000     -2.4680000000     -0.3319000000 
  H104         -2.1855000000     -2.1373000000     -0.9354000000 
  C105         -3.1936000000     -1.8280000000      0.8116000000 
  C106         -6.4946000000     -1.4691000000      3.4365000000 
  C107         -5.2516000000     -0.9293000000      3.7639000000 
  C108         -4.1848000000     -1.0653000000      2.8827000000 
  C109         -4.3409000000     -1.7907000000      1.6787000000 
  C110         -5.6121000000     -2.3169000000      1.3484000000 
  C111         -6.6738000000     -2.1456000000      2.2227000000 
  H112         -7.3323000000     -1.3505000000      4.1174000000 
  H113         -5.1169000000     -0.3962000000      4.6989000000 
  H114         -3.2245000000     -0.6172000000      3.1075000000 
  H115         -5.7703000000     -2.8255000000      0.4070000000 
  H116         -7.6510000000     -2.5377000000      1.9598000000 
  H117         -2.4209000000     -1.0854000000      1.0110000000 
  N118          0.4200000000     -1.2012000000     -0.2493000000 
  S119          0.1922000000     -1.3452000000     -1.8036000000 
  O120          0.8577000000     -0.3916000000     -2.6995000000 
  O121         -1.2448000000     -1.6304000000     -2.1301000000 
  C122          1.0124000000     -2.9871000000     -2.1250000000 
  F123          0.6102000000     -3.4362000000     -3.3236000000 
  F124          2.3390000000     -2.8359000000     -2.1486000000 
  F125          0.6852000000     -3.8881000000     -1.1974000000 
  C126         -1.3263000000     -3.1979000000      2.3410000000 
  C127         -2.1097000000     -4.1456000000      2.9954000000 
  C128         -2.3364000000     -3.6667000000      4.3034000000 
  C129         -1.6728000000     -2.4473000000      4.4145000000 
  N130         -1.0578000000     -2.1838000000      3.2287000000 
  H131         -0.8325000000     -3.2251000000      1.3808000000 
  H132         -2.4713000000     -5.0685000000      2.5653000000 
  H133         -2.9125000000     -4.1453000000      5.0827000000 
  H134         -1.5973000000     -1.7621000000      5.2466000000 
  H135         -0.5486000000     -1.3327000000      2.9563000000 
  S136         -3.4631000000     -4.0735000000     -0.8607000000 
  O137         -2.1935000000     -4.6896000000     -1.2277000000 
  O138         -4.3547000000     -4.6655000000      0.1243000000 
  C139         -5.7231000000     -3.0842000000     -4.6229000000 
  C140         -6.3166000000     -3.1113000000     -3.3579000000 
  N141         -5.6359000000     -3.4016000000     -2.2436000000 
  C142         -4.3452000000     -3.6695000000     -2.3903000000 
  C143         -3.6303000000     -3.6547000000     -3.5853000000 
  C144         -4.3599000000     -3.3521000000     -4.7363000000 
  H145         -6.3210000000     -2.8463000000     -5.4962000000 
  H146         -7.3736000000     -2.8921000000     -3.2318000000 
  H147         -2.5649000000     -3.8492000000     -3.6005000000 
  H148         -3.8661000000     -3.3214000000     -5.7020000000 
   
  principal moments of inertia:
        amu*angstrom^2:    20512.23000    26823.74772    32550.80181
                g*cm^2: 3.40613550E-36 4.45418755E-36 5.40518713E-36
   
  rotational constants:
               cm^(-1):      0.00082183      0.00062846      0.00051789
                   GHz:      0.02463794      0.01884073      0.01552585
   
  Molecular weight:    1308.28 amu
   
  Stoichiometry: Si2C73PN4H56S2O7F3
[running at reduced cpu priority]
  Molecular Point Group: C1      
  Point Group used: C1
  
  nuclear repulsion energy.......   20680.657059703 hartrees
 
 Non-default options chosen:
   SCF calculation type: DFT(m06-2x)                 
   DFT=M06-2X
   Solvation energy will be computed using PBF
     -solute cavity energy will not be included
     -surface area terms will not be included
   Highest accuracy cutoffs used in SCF
   Solvent: other                                                           
   Internal dielectric constant:    1.000
   Continuum dielectric constant:   2.380
   Solvent probe molecule radius:   2.760
  
 Temporary integer options set:
     73=  2
  
  atom       vdw   vdw2    cov     mass  grid  daf  charge   basis
  C1        1.949  1.900  0.770   12.000    Y    Y      Y    6-31g**
  C2        1.949  1.900  0.770   12.000    Y    Y      Y    6-31g**
  C3        1.949  1.900  0.770   12.000    Y    Y      Y    6-31g**
  C4        1.949  1.900  0.770   12.000    Y    Y      Y    6-31g**
  H5        1.597  1.150  0.320    1.008    Y    Y      Y    6-31g**
  C6        1.949  1.900  0.770   12.000    Y    Y      Y    6-31g**
  C7        1.949  1.900  0.770   12.000    Y    Y      Y    6-31g**
  C8        1.949  1.900  0.770   12.000    Y    Y      Y    6-31g**
  C9        1.949  1.900  0.770   12.000    Y    Y      Y    6-31g**
  H10       1.597  1.150  0.320    1.008    Y    Y      Y    6-31g**
  C11       1.949  1.900  0.770   12.000    Y    Y      Y    6-31g**
  C12       1.949  1.900  0.770   12.000    Y    Y      Y    6-31g**
  C13       1.949  1.900  0.770   12.000    Y    Y      Y    6-31g**
  C14       1.949  1.900  0.770   12.000    Y    Y      Y    6-31g**
  C15       1.949  1.900  0.770   12.000    Y    Y      Y    6-31g**
  C16       1.949  1.900  0.770   12.000    Y    Y      Y    6-31g**
  H17       1.597  1.150  0.320    1.008    Y    Y      Y    6-31g**
  H18       1.597  1.150  0.320    1.008    Y    Y      Y    6-31g**
  H19       1.597  1.150  0.320    1.008    Y    Y      Y    6-31g**
  H20       1.597  1.150  0.320    1.008    Y    Y      Y    6-31g**
  C21       1.949  1.900  0.770   12.000    Y    Y      Y    6-31g**
  C22       1.949  1.900  0.770   12.000    Y    Y      Y    6-31g**
  C23       1.949  1.900  0.770   12.000    Y    Y      Y    6-31g**
  C24       1.949  1.900  0.770   12.000    Y    Y      Y    6-31g**
  C25       1.949  1.900  0.770   12.000    Y    Y      Y    6-31g**
  C26       1.949  1.900  0.770   12.000    Y    Y      Y    6-31g**
  H27       1.597  1.150  0.320    1.008    Y    Y      Y    6-31g**
  H28       1.597  1.150  0.320    1.008    Y    Y      Y    6-31g**
  H29       1.597  1.150  0.320    1.008    Y    Y      Y    6-31g**
  H30       1.597  1.150  0.320    1.008    Y    Y      Y    6-31g**
  Si31      2.217  2.147  1.110   27.977    Y    Y      Y    6-31g**
  Si32      2.217  2.147  1.110   27.977    Y    Y      Y    6-31g**
  C33       1.949  1.900  0.770   12.000    Y    Y      Y    6-31g**
  C34       1.949  1.900  0.770   12.000    Y    Y      Y    6-31g**
  C35       1.949  1.900  0.770   12.000    Y    Y      Y    6-31g**
  C36       1.949  1.900  0.770   12.000    Y    Y      Y    6-31g**
  C37       1.949  1.900  0.770   12.000    Y    Y      Y    6-31g**
  C38       1.949  1.900  0.770   12.000    Y    Y      Y    6-31g**
  H39       1.597  1.150  0.320    1.008    Y    Y      Y    6-31g**
  H40       1.597  1.150  0.320    1.008    Y    Y      Y    6-31g**
  H41       1.597  1.150  0.320    1.008    Y    Y      Y    6-31g**
  H42       1.597  1.150  0.320    1.008    Y    Y      Y    6-31g**
  H43       1.597  1.150  0.320    1.008    Y    Y      Y    6-31g**
  C44       1.949  1.900  0.770   12.000    Y    Y      Y    6-31g**
  C45       1.949  1.900  0.770   12.000    Y    Y      Y    6-31g**
  C46       1.949  1.900  0.770   12.000    Y    Y      Y    6-31g**
  C47       1.949  1.900  0.770   12.000    Y    Y      Y    6-31g**
  C48       1.949  1.900  0.770   12.000    Y    Y      Y    6-31g**
  C49       1.949  1.900  0.770   12.000    Y    Y      Y    6-31g**
  H50       1.597  1.150  0.320    1.008    Y    Y      Y    6-31g**
  H51       1.597  1.150  0.320    1.008    Y    Y      Y    6-31g**
  H52       1.597  1.150  0.320    1.008    Y    Y      Y    6-31g**
  H53       1.597  1.150  0.320    1.008    Y    Y      Y    6-31g**
  H54       1.597  1.150  0.320    1.008    Y    Y      Y    6-31g**
  C55       1.949  1.900  0.770   12.000    Y    Y      Y    6-31g**
  C56       1.949  1.900  0.770   12.000    Y    Y      Y    6-31g**
  C57       1.949  1.900  0.770   12.000    Y    Y      Y    6-31g**
  C58       1.949  1.900  0.770   12.000    Y    Y      Y    6-31g**
  C59       1.949  1.900  0.770   12.000    Y    Y      Y    6-31g**
  C60       1.949  1.900  0.770   12.000    Y    Y      Y    6-31g**
  H61       1.597  1.150  0.320    1.008    Y    Y      Y    6-31g**
  H62       1.597  1.150  0.320    1.008    Y    Y      Y    6-31g**
  H63       1.597  1.150  0.320    1.008    Y    Y      Y    6-31g**
  H64       1.597  1.150  0.320    1.008    Y    Y      Y    6-31g**
  H65       1.597  1.150  0.320    1.008    Y    Y      Y    6-31g**
  C66       1.949  1.900  0.770   12.000    Y    Y      Y    6-31g**
  C67       1.949  1.900  0.770   12.000    Y    Y      Y    6-31g**
  C68       1.949  1.900  0.770   12.000    Y    Y      Y    6-31g**
  C69       1.949  1.900  0.770   12.000    Y    Y      Y    6-31g**
  C70       1.949  1.900  0.770   12.000    Y    Y      Y    6-31g**
  C71       1.949  1.900  0.770   12.000    Y    Y      Y    6-31g**
  H72       1.597  1.150  0.320    1.008    Y    Y      Y    6-31g**
  H73       1.597  1.150  0.320    1.008    Y    Y      Y    6-31g**
  H74       1.597  1.150  0.320    1.008    Y    Y      Y    6-31g**
  H75       1.597  1.150  0.320    1.008    Y    Y      Y    6-31g**
  H76       1.597  1.150  0.320    1.008    Y    Y      Y    6-31g**
  C77       1.949  1.900  0.770   12.000    Y    Y      Y    6-31g**
  C78       1.949  1.900  0.770   12.000    Y    Y      Y    6-31g**
  C79       1.949  1.900  0.770   12.000    Y    Y      Y    6-31g**
  C80       1.949  1.900  0.770   12.000    Y    Y      Y    6-31g**
  C81       1.949  1.900  0.770   12.000    Y    Y      Y    6-31g**
  C82       1.949  1.900  0.770   12.000    Y    Y      Y    6-31g**
  H83       1.597  1.150  0.320    1.008    Y    Y      Y    6-31g**
  H84       1.597  1.150  0.320    1.008    Y    Y      Y    6-31g**
  H85       1.597  1.150  0.320    1.008    Y    Y      Y    6-31g**
  H86       1.597  1.150  0.320    1.008    Y    Y      Y    6-31g**
  H87       1.597  1.150  0.320    1.008    Y    Y      Y    6-31g**
  C88       1.949  1.900  0.770   12.000    Y    Y      Y    6-31g**
  C89       1.949  1.900  0.770   12.000    Y    Y      Y    6-31g**
  C90       1.949  1.900  0.770   12.000    Y    Y      Y    6-31g**
  C91       1.949  1.900  0.770   12.000    Y    Y      Y    6-31g**
  C92       1.949  1.900  0.770   12.000    Y    Y      Y    6-31g**
  C93       1.949  1.900  0.770   12.000    Y    Y      Y    6-31g**
  H94       1.597  1.150  0.320    1.008    Y    Y      Y    6-31g**
  H95       1.597  1.150  0.320    1.008    Y    Y      Y    6-31g**
  H96       1.597  1.150  0.320    1.008    Y    Y      Y    6-31g**
  H97       1.597  1.150  0.320    1.008    Y    Y      Y    6-31g**
  H98       1.597  1.150  0.320    1.008    Y    Y      Y    6-31g**
  O99       1.702  1.600  0.730   15.995    Y    Y      Y    6-31g**
  O100      1.702  1.600  0.730   15.995    Y    Y      Y    6-31g**
  P101      2.147  2.074  1.060   30.974    Y    Y      Y    6-31g**
  O102      1.702  1.600  0.730   15.995    Y    Y      Y    6-31g**
  N103      1.831  1.600  0.750   14.003    Y    Y      Y    6-31g**
  H104      1.597  1.150  0.320    1.008    Y    Y      Y    6-31g**
  C105      1.949  1.900  0.770   12.000    Y    Y      Y    6-31g**
  C106      1.949  1.900  0.770   12.000    Y    Y      Y    6-31g**
  C107      1.949  1.900  0.770   12.000    Y    Y      Y    6-31g**
  C108      1.949  1.900  0.770   12.000    Y    Y      Y    6-31g**
  C109      1.949  1.900  0.770   12.000    Y    Y      Y    6-31g**
  C110      1.949  1.900  0.770   12.000    Y    Y      Y    6-31g**
  C111      1.949  1.900  0.770   12.000    Y    Y      Y    6-31g**
  H112      1.597  1.150  0.320    1.008    Y    Y      Y    6-31g**
  H113      1.597  1.150  0.320    1.008    Y    Y      Y    6-31g**
  H114      1.597  1.150  0.320    1.008    Y    Y      Y    6-31g**
  H115      1.597  1.150  0.320    1.008    Y    Y      Y    6-31g**
  H116      1.597  1.150  0.320    1.008    Y    Y      Y    6-31g**
  H117      1.597  1.150  0.320    1.008    Y    Y      Y    6-31g**
  N118      1.831  1.600  0.750   14.003    Y    Y      Y    6-31g**
  S119      2.070  1.900  1.020   31.972    Y    Y      Y    6-31g**
  O120      1.702  1.600  0.730   15.995    Y    Y      Y    6-31g**
  O121      1.702  1.600  0.730   15.995    Y    Y      Y    6-31g**
  C122      1.949  1.900  0.770   12.000    Y    Y      Y    6-31g**
  F123      1.736  1.682  0.720   18.998    Y    Y      Y    6-31g**
  F124      1.736  1.682  0.720   18.998    Y    Y      Y    6-31g**
  F125      1.736  1.682  0.720   18.998    Y    Y      Y    6-31g**
  C126      1.949  1.900  0.770   12.000    Y    Y      Y    6-31g**
  C127      1.949  1.900  0.770   12.000    Y    Y      Y    6-31g**
  C128      1.949  1.900  0.770   12.000    Y    Y      Y    6-31g**
  C129      1.949  1.900  0.770   12.000    Y    Y      Y    6-31g**
  N130      1.831  1.600  0.750   14.003    Y    Y      Y    6-31g**
  H131      1.597  1.150  0.320    1.008    Y    Y      Y    6-31g**
  H132      1.597  1.150  0.320    1.008    Y    Y      Y    6-31g**
  H133      1.597  1.150  0.320    1.008    Y    Y      Y    6-31g**
  H134      1.597  1.150  0.320    1.008    Y    Y      Y    6-31g**
  H135      1.597  1.150  0.320    1.008    Y    Y      Y    6-31g**
  S136      2.070  1.900  1.020   31.972    Y    Y      Y    6-31g**
  O137      1.702  1.600  0.730   15.995    Y    Y      Y    6-31g**
  O138      1.702  1.600  0.730   15.995    Y    Y      Y    6-31g**
  C139      1.949  1.900  0.770   12.000    Y    Y      Y    6-31g**
  C140      1.949  1.900  0.770   12.000    Y    Y      Y    6-31g**
  N141      1.831  1.600  0.750   14.003    Y    Y      Y    6-31g**
  C142      1.949  1.900  0.770   12.000    Y    Y      Y    6-31g**
  C143      1.949  1.900  0.770   12.000    Y    Y      Y    6-31g**
  C144      1.949  1.900  0.770   12.000    Y    Y      Y    6-31g**
  H145      1.597  1.150  0.320    1.008    Y    Y      Y    6-31g**
  H146      1.597  1.150  0.320    1.008    Y    Y      Y    6-31g**
  H147      1.597  1.150  0.320    1.008    Y    Y      Y    6-31g**
  H148      1.597  1.150  0.320    1.008    Y    Y      Y    6-31g**
  
  Peak memory usage:    768 Mb
  
  end of program pre
   
 Time(pre)  user:        1.0  user+sys:        1.0  wallclock:        1.7
  
  start of program onee
  
  smallest eigenvalue of S:    2.174E-04
  number of canonical orbitals.....         1673
  Peak memory usage:    900 Mb
  
  end of program onee
   
 Time(onee)  user:       20.2  user+sys:       20.2  wallclock:       32.6
  
  start of program hfig
  
  initial wavefunction generated automatically from atomic wavefunctions
 
  Irreducible     Total no   No of occupied orbitals 
  representation  orbitals   Shell_1  Shell_2    ...
  No Symm         1673        340
  ------------------------
  Orbital occupation/shell    1.000
 
  Peak memory usage:    833 Mb
  
  end of program hfig
   
 Time(hfig)  user:       39.6  user+sys:       39.6  wallclock:       68.2
  
  start of program probe
  
  Peak memory usage:    826 Mb
  
  end of program probe
   
 Time(probe)  user:       23.8  user+sys:       23.8  wallclock:       40.9
  
  start of program grid
  
   grid     grid set  grid #  grid sym
  ------    --------  ------  --------
  coarse        0        0        1
  medium        2        1        1
  fine          0        0        1
  ultrafine     4        2        1
  charge       -1        3        1
  gradient      4        2        1
  density       0        0        1
  DFT-fine    -13        4        1
  DFT-med.    -13        4        1
  DFT-grad    -13        4        1
  DFT-der2      0        0        1
  DFT-cphf      0        0        1
  LMP2-enrg     4        2        1
  LMP2-grad     2        1        1
  DFT-cphf2     0        0        1
  PBF-dens      0        0        1
  plotting      0        0        1
  Rel-grad    -17        0        1
  
  number of gridpoints: 
     atom        C1       C2       C3       C4       H5       C6       C7
  grid # 1      100       94      102       97      111       93      100
  grid # 2      356      337      356      358      425      334      361
  grid # 3       12       29       13       13      197       15        9
  grid # 4    48124    48124    48124    48124    48426    48124    48124
   
  number of gridpoints: 
     atom        C8       C9      H10      C11      C12      C13      C14
  grid # 1       95      100      109      102      102       98       94
  grid # 2      348      352      426      360      366      340      338
  grid # 3        8        7      185       32       47       48       48
  grid # 4    48124    48124    48426    48124    48124    48124    48124
   
  number of gridpoints: 
     atom       C15      C16      H17      H18      H19      H20      C21
  grid # 1       94       96      118      118      117      110      101
  grid # 2      338      338      442      450      447      426      365
  grid # 3       36       30      362      418      387      180       32
  grid # 4    48124    48124    48426    48426    48426    48426    48124
   
  number of gridpoints: 
     atom       C22      C23      C24      C25      C26      H27      H28
  grid # 1      101       96       94       94       96      112      118
  grid # 2      355      337      336      335      336      434      452
  grid # 3        8       24       36       44       38      239      418
  grid # 4    48124    48124    48124    48124    48124    48426    48426
   
  number of gridpoints: 
     atom       H29      H30     Si31     Si32      C33      C34      C35
  grid # 1      118      118      467      472       93       93       93
  grid # 2      453      445      467      472      333      332      333
  grid # 3      424      356        9        8       28       28       26
  grid # 4    48426    48426    38542    38542    48124    48124    48124
   
  number of gridpoints: 
     atom       C36      C37      C38      H39      H40      H41      H42
  grid # 1      100       95       93      111      110      108      111
  grid # 2      359      333      332      431      430      420      427
  grid # 3       13       17       25      198      195      139      173
  grid # 4    48124    48124    48124    48426    48426    48426    48426
   
  number of gridpoints: 
     atom       H43      C44      C45      C46      C47      C48      C49
  grid # 1      117       93       92       92      101       96       93
  grid # 2      450      331      332      332      359      335      334
  grid # 3      371       25       18        7       14       22       27
  grid # 4    48426    48124    48124    48124    48124    48124    48124
   
  number of gridpoints: 
     atom       H50      H51      H52      H53      H54      C55      C56
  grid # 1      115      115      111      110      117       94       94
  grid # 2      447      440      426      424      449      336      336
  grid # 3      359      308      209      181      362       43       41
  grid # 4    48426    48426    48426    48426    48426    48124    48124
   
  number of gridpoints: 
     atom       C57      C58      C59      C60      H61      H62      H63
  grid # 1       93      101       96       94      118      118      111
  grid # 2      336      359      335      336      453      452      433
  grid # 3       30       18       25       42      424      419      222
  grid # 4    48124    48124    48124    48124    48426    48426    48426
   
  number of gridpoints: 
     atom       H64      H65      C66      C67      C68      C69      C70
  grid # 1      111      118       94       94       93      101       94
  grid # 2      433      453      336      336      338      360      333
  grid # 3      241      423       49       48       34       20       21
  grid # 4    48426    48426    48124    48124    48124    48124    48124
   
  number of gridpoints: 
     atom       C71      H72      H73      H74      H75      H76      C77
  grid # 1       94      118      118      112      108      118       94
  grid # 2      336      453      452      431      415      452      333
  grid # 3       42      425      418      230      114      418       30
  grid # 4    48124    48426    48426    48426    48426    48426    48124
   
  number of gridpoints: 
     atom       C78      C79      C80      C81      C82      H83      H84
  grid # 1       93       92      101       97       93      114      115
  grid # 2      331      333      359      338      333      441      441
  grid # 3       24       15       16       30       29      305      308
  grid # 4    48124    48124    48124    48124    48124    48426    48426
   
  number of gridpoints: 
     atom       H85      H86      H87      C88      C89      C90      C91
  grid # 1      110      109      115       94       94       92      100
  grid # 2      429      414      446      335      335      338      358
  grid # 3      193      136      341       45       45       27        9
  grid # 4    48426    48426    48426    48124    48124    48124    48124
   
  number of gridpoints: 
     atom       C92      C93      H94      H95      H96      H97      H98
  grid # 1       94       92      118      118      109      112      118
  grid # 2      329      335      453      448      425      435      451
  grid # 3       10       28      425      370      162      251      421
  grid # 4    48124    48124    48426    48426    48426    48426    48426
   
  number of gridpoints: 
     atom       O99     O100     P101     O102     N103     H104     C105
  grid # 1      111      112      449      116      100       98       92
  grid # 2      433      442      449      453      350      389      332
  grid # 3       31       63       10       49        9       60        7
  grid # 4    47716    47716    38640    47716    47928    48426    48124
   
  number of gridpoints: 
     atom      C106     C107     C108     C109     C110     C111     H112
  grid # 1       97       95       95       96       95       97      118
  grid # 2      334      331      332      355      333      336      450
  grid # 3       38       29       14       12       30       41      412
  grid # 4    48124    48124    48124    48124    48124    48124    48426
   
  number of gridpoints: 
     atom      H113     H114     H115     H116     H117     N118     S119
  grid # 1      110      106      107      118      104      109      435
  grid # 2      433      414      415      451      407      403      435
  grid # 3      225       94      111      410       57       25        7
  grid # 4    48426    48426    48426    48426    48426    47928    48492
   
  number of gridpoints: 
     atom      O120     O121     C122     F123     F124     F125     C126
  grid # 1      119      116       90      537      516      518       94
  grid # 2      492      453      318      537      516      518      322
  grid # 3      154       63        7      260      106       99        6
  grid # 4    47716    47716    48124    47062    47062    47062    48124
   
  number of gridpoints: 
     atom      C127     C128     C129     N130     H131     H132     H133
  grid # 1       95       95       93       96      107      114      117
  grid # 2      328      329      326      334      420      450      459
  grid # 3       10       17       11        8      112      344      439
  grid # 4    48124    48124    48124    47928    48426    48426    48426
   
  number of gridpoints: 
     atom      H134     H135     S136     O137     O138     C139     C140
  grid # 1      115      103      447      120      121       96       96
  grid # 2      447      406      447      489      489      329      337
  grid # 3      323       77       18      183      208       29       28
  grid # 4    48426    48426    48492    47716    47716    48124    48124
   
  number of gridpoints: 
     atom      N141     C142     C143     C144     H145     H146     H147
  grid # 1      112       98       96       96      117      117      111
  grid # 2      413      359      329      328      451      453      431
  grid # 3       67       34       32       29      411      424      226
  grid # 4    47928    48124    48124    48124    48426    48426    48426
   
  number of gridpoints: 
     atom      H148    total
  grid # 1      117    18391
  grid # 2      452    57857
  grid # 3      410    19293
  grid # 4    48426  7104526
   
  Peak memory usage:    795 Mb
  
  end of program grid
   
 Time(grid)  user:     1065.0  user+sys:     1065.0  wallclock:     2216.7
  
  start of program rwr
  
  Peak memory usage:    814 Mb
  
  end of program rwr
   
 Time(rwr)  user:       65.9  user+sys:       65.9  wallclock:      232.2
  
  start of program scf
  
 number of electrons..........        680
 number of alpha electrons....        340
 number of beta electrons.....        340
 number of orbitals, total....       1673
 number of doubly-occ'd orbs..        340
 number of open shell orbs....          0
 number of occupied orbitals..        340
 number of virtual orbitals...       1333
 number of hamiltonians.......          1
 number of shells.............          1
 SCF type: DFT=M06-2X
 Energy computed with NOPS off.
  
       i  u  d  i  g                   
       t  p  i  c  r                                 RMS    maximum
       e  d  i  u  i                       energy  density   DIIS  
       r  t  s  t  d       total energy    change  change    error 
  
etot    1  N  N  1  U   -5562.73781011763           3.9E-03  1.1E-01
etot    2  N  Y  1  U   -5530.50781403436 -3.2E+01  1.6E-02  1.3E-01
etot    3  N  Y  1  U   -5370.74696815766 -1.6E+02  1.6E-02  4.7E-01
etot    4  N  Y  1  U   -5571.02227500650  2.0E+02  2.5E-03  6.7E-02
etot    5  N  Y  1  U   -5570.76244827128 -2.6E-01  1.7E-03  4.5E-02
etot    6  N  Y  1  U   -5574.50549878222  3.7E+00  7.2E-04  4.4E-02
etot    7  N  Y  1  U   -5575.47262462252  9.7E-01  3.0E-04  1.2E-02
etot    8  N  Y  1  U   -5575.52080537607  4.8E-02  1.4E-04  6.0E-03
etot    9  N  Y  1  U   -5575.55065259449  3.0E-02  4.5E-05  2.1E-03
etot   10  N  Y  1  U   -5575.55385928443  3.2E-03  1.7E-05  6.1E-04
etot   11  N  Y  1  U   -5575.55427733251  4.2E-04  7.0E-06  3.0E-04
etot   12  N  Y  1  U   -5575.55433966018  6.2E-05  3.0E-06  9.7E-05
etot   13  N  N  1  U   -5575.55435291875  1.3E-05  0.0E+00  0.0E+00
  
  
 Energy components, in hartrees:
   (A)  Nuclear repulsion............   20680.65705970261
   (E)  Total one-electron terms.....  -48889.11198971626
   (F)    Electron-nuclear...........  -54425.09651707568
   (H)    Kinetic....................    5535.98452735940
   (I)  Total two-electron terms.....   22632.90057709489
   (J)    Coulomb....................   23284.12683699473
   (K)    Exchange+Correlation.......    -651.22625989984
   (L)  Electronic energy............  -26256.21141262136  (E+I)
   (M)  -V/T.........................       2.00714774858  (-(A+F+I)/H)
   (N)  Total energy.................   -5575.55435291875  (A+L)
   (O)  Gas phase energy.............   -5575.55435291875
  
 SCFE: SCF energy: DFT(m06-2x)     -5575.55435291875 hartrees   iterations:  13
  
 
 HOMO energy:    -0.24614
 LUMO energy:    -0.08200
 
  Orbital energies (hartrees): 
   -90.19297   -90.15027   -78.20585   -67.01041   -67.00173   -25.29010
   -25.28693   -25.28578   -19.68898   -19.68433   -19.67571   -19.67119
   -19.63133   -19.61991   -19.59867   -14.84704   -14.81501   -14.77990
   -14.73716   -10.80369   -10.67950   -10.65410   -10.63007   -10.62376
   -10.61275   -10.61047   -10.60713   -10.60385   -10.59409   -10.58472
   -10.58428   -10.58219   -10.57422   -10.57314   -10.56820   -10.56728
   -10.56002   -10.55956   -10.55912   -10.55809   -10.55629   -10.55503
   -10.55482   -10.55294   -10.55247   -10.55218   -10.55178   -10.55171
   -10.55160   -10.55158   -10.55033   -10.54993   -10.54942   -10.54937
   -10.54928   -10.54840   -10.54820   -10.54806   -10.54745   -10.54681
   -10.54647   -10.54489   -10.54447   -10.54418   -10.54411   -10.54382
   -10.54360   -10.54358   -10.54347   -10.54335   -10.54301   -10.54259
   -10.54258   -10.54201   -10.54159   -10.54128   -10.54057   -10.53791
   -10.53698   -10.53400   -10.53362   -10.53317   -10.52948   -10.52876
   -10.52781   -10.52774   -10.52660   -10.52584   -10.52554   -10.52071
   -10.51977   -10.51460    -8.50368    -8.45921    -6.98510    -6.42616
    -6.42472    -6.42380    -6.38096    -6.38078    -6.38048    -5.54170
    -5.53237    -5.10350    -5.10272    -5.10091    -3.85152    -3.85112
    -3.85100    -3.84214    -3.84203    -3.84158    -1.45454    -1.36475
    -1.36192    -1.26736    -1.22491    -1.21150    -1.18192    -1.15640
    -1.10576    -1.10227    -1.08781    -1.08435    -1.06345    -0.98695
    -0.98576    -0.97591    -0.96066    -0.94762    -0.94624    -0.94359
    -0.93989    -0.93834    -0.93507    -0.92157    -0.91890    -0.91640
    -0.90648    -0.89495    -0.88500    -0.86633    -0.84917    -0.84863
    -0.84594    -0.83902    -0.83655    -0.83561    -0.83467    -0.83276
    -0.82994    -0.82966    -0.82921    -0.82830    -0.82598    -0.82471
    -0.82187    -0.82056    -0.81678    -0.81315    -0.80884    -0.79609
    -0.79552    -0.77510    -0.75990    -0.75742    -0.73162    -0.72591
    -0.71565    -0.70571    -0.69957    -0.69192    -0.68724    -0.68576
    -0.68078    -0.68058    -0.67943    -0.67515    -0.67350    -0.67233
    -0.67105    -0.66819    -0.66711    -0.66639    -0.66537    -0.66460
    -0.66303    -0.65867    -0.65150    -0.64832    -0.64702    -0.64296
    -0.63851    -0.63168    -0.63078    -0.62574    -0.61986    -0.60880
    -0.60673    -0.59919    -0.59768    -0.59551    -0.59276    -0.58623
    -0.58294    -0.58086    -0.58009    -0.57734    -0.57430    -0.57193
    -0.56419    -0.56015    -0.55986    -0.55684    -0.55592    -0.55334
    -0.54878    -0.54786    -0.54483    -0.53995    -0.53390    -0.52922
    -0.52684    -0.52404    -0.52116    -0.52060    -0.51985    -0.51850
    -0.51773    -0.51537    -0.51430    -0.51253    -0.51196    -0.51084
    -0.50883    -0.50760    -0.50468    -0.50444    -0.50149    -0.49960
    -0.49813    -0.49735    -0.49675    -0.49535    -0.49404    -0.49235
    -0.49141    -0.49065    -0.48911    -0.48412    -0.48347    -0.48261
    -0.48110    -0.47942    -0.47756    -0.47701    -0.47571    -0.47495
    -0.47028    -0.46508    -0.46453    -0.45986    -0.45775    -0.45489
    -0.45386    -0.45099    -0.44833    -0.44678    -0.44444    -0.44373
    -0.44117    -0.43680    -0.43498    -0.43429    -0.43304    -0.43094
    -0.42688    -0.42579    -0.42423    -0.42225    -0.42173    -0.41948
    -0.41838    -0.41670    -0.41453    -0.41285    -0.41108    -0.40667
    -0.40551    -0.40334    -0.40055    -0.39554    -0.39438    -0.39352
    -0.39184    -0.39005    -0.38751    -0.38656    -0.38490    -0.38264
    -0.38130    -0.38010    -0.37477    -0.37218    -0.37119    -0.36960
    -0.36748    -0.36480    -0.36098    -0.35318    -0.35238    -0.34813
    -0.34520    -0.34253    -0.34165    -0.33842    -0.33140    -0.33063
    -0.32987    -0.32686    -0.31971    -0.30948    -0.30526    -0.30266
    -0.29887    -0.29684    -0.29555    -0.29490    -0.29423    -0.29307
    -0.29037    -0.28972    -0.28632    -0.28591    -0.28030    -0.27545
    -0.27026    -0.26691    -0.24912    -0.24614    -0.08200    -0.04166
    -0.02342    -0.01563     0.00666     0.00895     0.01191     0.01742
     0.01832     0.02368
 
  Peak memory usage:   1028 Mb
  
  end of program scf
   
 Time(scf)  user:    36763.2  user+sys:    36763.2  wallclock:   116202.6
  
  start of program ch
  
  gridpoints used for charge fit        16685
    out of a possible maximum of        19293
  
   Electrostatic potential fitting constrained to reproduce
     total charge:                yes
     dipole moment:               no 
     traceless quadrupole moment: no 
     traceless octapole moment:   no 
  
  Atomic charges from electrostatic potential: 
   
 Atom       C1           C2           C3           C4           H5      
 Charge   -0.05090     -0.53622      0.30949     -0.10335      0.22007
   
 Atom       C6           C7           C8           C9           H10     
 Charge   -0.36490      0.09476      0.25859     -0.05077      0.18592
   
 Atom       C11          C12          C13          C14          C15     
 Charge    0.03026      0.28573     -0.23614     -0.12993     -0.13812
   
 Atom       C16          H17          H18          H19          H20     
 Charge   -0.14019      0.14771      0.13455      0.14018      0.08863
   
 Atom       C21          C22          C23          C24          C25     
 Charge    0.09180      0.18059     -0.19844     -0.13109     -0.15470
   
 Atom       C26          H27          H28          H29          H30     
 Charge   -0.17068      0.13462      0.13707      0.13865      0.13668
   
 Atom       Si31         Si32         C33          C34          C35     
 Charge   -0.20181     -0.18117     -0.03905     -0.19722      0.04600
   
 Atom       C36          C37          C38          H39          H40     
 Charge   -0.12638     -0.06293     -0.16375      0.07097      0.08006
   
 Atom       H41          H42          H43          C44          C45     
 Charge    0.03925      0.11993      0.13726     -0.18475     -0.10580
   
 Atom       C46          C47          C48          C49          H50     
 Charge   -0.18317      0.20019     -0.18525     -0.08656      0.13791
   
 Atom       H51          H52          H53          H54          C55     
 Charge    0.11222      0.13215      0.12460      0.12817     -0.13642
   
 Atom       C56          C57          C58          C59          C60     
 Charge   -0.15068     -0.16423      0.21472     -0.22758     -0.12078
   
 Atom       H61          H62          H63          H64          H65     
 Charge    0.13203      0.13672      0.12466      0.13047      0.13235
   
 Atom       C66          C67          C68          C69          C70     
 Charge   -0.10527     -0.18314     -0.06747      0.04474     -0.10367
   
 Atom       C71          H72          H73          H74          H75     
 Charge   -0.15872      0.12585      0.14020      0.08736      0.11767
   
 Atom       H76          C77          C78          C79          C80     
 Charge    0.13041     -0.12493     -0.12264     -0.21798      0.25711
   
 Atom       C81          C82          H83          H84          H85     
 Charge   -0.26465     -0.09971      0.11677      0.11061      0.12990
   
 Atom       H86          H87          C88          C89          C90     
 Charge    0.13290      0.12174     -0.08432     -0.20377     -0.07922
   
 Atom       C91          C92          C93          H94          H95     
 Charge    0.06434     -0.04407     -0.20064      0.12317      0.13914
   
 Atom       H96          H97          H98          O99          O100    
 Charge    0.11307      0.09469      0.13806     -0.13001     -0.40796
   
 Atom       P101         O102         N103         H104         C105    
 Charge    1.13323     -0.63462     -0.35587      0.36714      0.45946
   
 Atom       C106         C107         C108         C109         C110    
 Charge    0.01331     -0.28197      0.19478     -0.25029      0.20707
   
 Atom       C111         H112         H113         H114         H115    
 Charge   -0.29986      0.12751      0.15345      0.04556      0.00935
   
 Atom       H116         H117         N118         S119         O120    
 Charge    0.17110     -0.04810     -0.68641      0.65881     -0.42738
   
 Atom       O121         C122         F123         F124         F125    
 Charge   -0.49512      0.38888     -0.12950     -0.10796     -0.08727
   
 Atom       C126         C127         C128         C129         N130    
 Charge    0.07333     -0.35216     -0.13078     -0.33128      0.04462
   
 Atom       H131         H132         H133         H134         H135    
 Charge    0.03792      0.18860      0.14853      0.18886      0.26577
   
 Atom       S136         O137         O138         C139         C140    
 Charge    0.76086     -0.43556     -0.40669     -0.40501      0.32593
   
 Atom       N141         C142         C143         C144         H145    
 Charge   -0.50099      0.44495     -0.39209      0.18515      0.19306
   
 Atom       H146         H147         H148    
 Charge    0.07725      0.19894      0.11393
  
  sum of atomic charges:     0.000000
   
 RMS Error   9.55E-04 hartrees
 
  Peak memory usage:    816 Mb
  
  end of program ch
   
 Time(ch)  user:       19.4  user+sys:       19.4  wallclock:       60.4
  
  start of program post
  
  Writing input files for PBF
  Peak memory usage:    759 Mb
  
  end of program post
   
 Time(post)  user:        0.9  user+sys:        0.9  wallclock:        3.0

  start of program pbf

Pbf Version 4.10

Molecular surface area:      841.38108   [A2]
Reaction field energy:       -17.50407   [kT]
  Peak memory usage: 721 Mb

  end of program pbf

 Time(pbf)  user:       13.7  user+sys:       13.8  wallclock:       39.0
  
  start of program solv
  
   number of surface charges from PBF   13136
   sum of surface charges     -0.00037
   
  nuclear repulsion energy.......   20680.657059703 hartrees
  Peak memory usage:    894 Mb
  
  end of program solv
   
 Time(solv)  user:       36.7  user+sys:       36.7  wallclock:      114.3
  
  start of program scf
  
 Energy computed with NOPS off.
  
       i  u  d  i  g                   
       t  p  i  c  r                                 RMS    maximum
       e  d  i  u  i                       energy  density   DIIS  
       r  t  s  t  d       total energy    change  change    error 
  
etot    1  N  N  1  U   -5575.59098682127           5.1E-05  1.8E-03
etot    2  N  Y  1  U   -5575.59182090677  8.3E-04  1.6E-05  1.3E-03
etot    3  N  Y  1  U   -5575.59206882506  2.5E-04  5.2E-06  7.2E-04
etot    4  N  Y  1  U   -5575.59211958371  5.1E-05  2.2E-06  1.2E-04
etot    5  N  N  1  U   -5575.59212512364  5.5E-06  0.0E+00  0.0E+00
  
  
 Energy components, in hartrees:
   (A)  Total zero-electron terms....   20683.99298387702
   (B)    Nuclear-nuclear............   20680.65705970261
   (C)    Nuclear-solvent............       3.33592417441
   (E)  Total one-electron terms.....  -48894.18345557057
   (F)    Electron-nuclear...........  -54426.85242968488
   (G)    Electron-solvent...........      -3.37482982849
   (H)    Kinetic....................    5536.04380394280
   (I)  Total two-electron terms.....   22634.59834656991
   (J)    Coulomb....................   23285.84574212222
   (K)    Exchange+Correlation.......    -651.24739555231
   (L)  Electronic energy............  -26259.58510900066  (E+I)
   (N)  Total quantum mech. energy...   -5575.59212512364  (A+L)
   (O)  Gas phase energy.............   -5575.55435291875
   (P)  Solution phase energy........   -5575.57267229660  (Q+R+S)
   (Q)    Total solute energy........   -5575.55321946956  (N-C-G)
   (R)    Total solvent energy.......      -0.01945282704  (C/2+G/2)
   (S)    Solute cavity energy.......       0.00000000000
   (U)  Reorganization energy........       0.00113344920  (Q-O)
   (V)  Solvation energy.............      -0.01831937784  (P-O)
  
 SCFE:  Solution phase energy: DFT(m06-2x)      -5575.57267229660 hartrees
        SCF iterations:   5
  
 
 HOMO energy:    -0.24881
 LUMO energy:    -0.08230
 
  Orbital energies (hartrees): 
   -90.19536   -90.15591   -78.20984   -67.01244   -67.00709   -25.29621
   -25.29292   -25.29184   -19.69260   -19.68820   -19.67820   -19.67336
   -19.63591   -19.62633   -19.60172   -14.84877   -14.80956   -14.78235
   -14.74216   -10.80968   -10.68092   -10.64982   -10.62726   -10.62202
   -10.61755   -10.60172   -10.60073   -10.59468   -10.59386   -10.58387
   -10.58116   -10.58099   -10.57166   -10.57121   -10.57067   -10.57051
   -10.56482   -10.56311   -10.56173   -10.56086   -10.55778   -10.55653
   -10.55633   -10.55497   -10.55490   -10.55437   -10.55374   -10.55363
   -10.55315   -10.55258   -10.55248   -10.55207   -10.55074   -10.55071
   -10.55050   -10.55042   -10.54972   -10.54941   -10.54894   -10.54841
   -10.54830   -10.54822   -10.54810   -10.54793   -10.54780   -10.54751
   -10.54700   -10.54678   -10.54661   -10.54651   -10.54643   -10.54620
   -10.54573   -10.54572   -10.54520   -10.54516   -10.54424   -10.54089
   -10.53878   -10.53757   -10.53626   -10.53521   -10.53520   -10.53438
   -10.53406   -10.53345   -10.53182   -10.53122   -10.53115   -10.52273
   -10.52207   -10.52044    -8.50598    -8.46483    -6.98909    -6.42846
    -6.42710    -6.42602    -6.38659    -6.38638    -6.38610    -5.54372
    -5.53774    -5.10749    -5.10672    -5.10489    -3.85355    -3.85314
    -3.85302    -3.84750    -3.84740    -3.84695    -1.46056    -1.37078
    -1.36798    -1.27004    -1.22916    -1.21676    -1.18585    -1.15945
    -1.10754    -1.10004    -1.09003    -1.08761    -1.06581    -0.99151
    -0.98475    -0.97974    -0.96468    -0.94854    -0.94483    -0.94345
    -0.94179    -0.93975    -0.93862    -0.92767    -0.91977    -0.91446
    -0.91001    -0.89302    -0.88875    -0.86464    -0.85206    -0.85127
    -0.84808    -0.84188    -0.83956    -0.83867    -0.83593    -0.83485
    -0.83443    -0.83250    -0.83053    -0.82900    -0.82827    -0.82728
    -0.82608    -0.82522    -0.82103    -0.81901    -0.81454    -0.79955
    -0.79766    -0.77247    -0.76205    -0.75240    -0.73106    -0.72762
    -0.71429    -0.70868    -0.70274    -0.69572    -0.68978    -0.68680
    -0.68561    -0.68482    -0.68139    -0.67784    -0.67662    -0.67394
    -0.67293    -0.67193    -0.67081    -0.67024    -0.66590    -0.66506
    -0.66354    -0.66315    -0.65679    -0.65259    -0.65025    -0.64692
    -0.63983    -0.63306    -0.63058    -0.62735    -0.62352    -0.61022
    -0.60805    -0.60180    -0.59871    -0.59502    -0.59050    -0.58532
    -0.58335    -0.58130    -0.58075    -0.58004    -0.57782    -0.57525
    -0.56911    -0.56542    -0.56177    -0.55864    -0.55822    -0.55346
    -0.55126    -0.54760    -0.54760    -0.54282    -0.53765    -0.53306
    -0.52872    -0.52667    -0.52400    -0.52350    -0.52069    -0.52056
    -0.51882    -0.51734    -0.51594    -0.51566    -0.51249    -0.51131
    -0.50855    -0.50756    -0.50557    -0.50488    -0.50279    -0.50193
    -0.50179    -0.49972    -0.49957    -0.49873    -0.49715    -0.49580
    -0.49464    -0.49240    -0.48973    -0.48746    -0.48512    -0.48501
    -0.48253    -0.48122    -0.48000    -0.47890    -0.47869    -0.47404
    -0.47182    -0.46934    -0.46730    -0.46481    -0.46039    -0.45710
    -0.45522    -0.45233    -0.45010    -0.44935    -0.44773    -0.44590
    -0.44432    -0.43928    -0.43805    -0.43672    -0.43514    -0.43277
    -0.42918    -0.42829    -0.42577    -0.42511    -0.42315    -0.42238
    -0.42055    -0.41919    -0.41872    -0.41697    -0.41374    -0.41097
    -0.40722    -0.40614    -0.40430    -0.39846    -0.39693    -0.39523
    -0.39262    -0.39134    -0.39097    -0.39025    -0.38839    -0.38478
    -0.38341    -0.37982    -0.37680    -0.37630    -0.37514    -0.37375
    -0.36862    -0.36422    -0.35768    -0.35671    -0.35448    -0.35145
    -0.34694    -0.34661    -0.34427    -0.34246    -0.33649    -0.33506
    -0.32883    -0.32590    -0.32419    -0.31436    -0.30685    -0.30519
    -0.30041    -0.30040    -0.29977    -0.29811    -0.29795    -0.29726
    -0.29561    -0.29206    -0.29015    -0.28903    -0.28552    -0.28102
    -0.27565    -0.27105    -0.25282    -0.24881    -0.08230    -0.03636
    -0.01895    -0.01642     0.00228     0.00675     0.01293     0.01494
     0.01609     0.01912
 
  Peak memory usage:   1029 Mb
  
  end of program scf
   
 Time(scf)  user:    10995.3  user+sys:    10995.3  wallclock:    34858.8
  
  start of program sole
  
    SCRF                   solvation energy
  iteration          Hartrees            kcal/mol
     0               0.0000000            0.0000
     1              -0.0183194          -11.4956
  
  solvation energy not yet converged... 
  
  Peak memory usage:    813 Mb
  
  end of program sole
   
 Time(sole)  user:        0.2  user+sys:        0.2  wallclock:        0.5
  
  start of program ch
  
  gridpoints used for charge fit        16685
    out of a possible maximum of        16685
  
   Electrostatic potential fitting constrained to reproduce
     total charge:                yes
     dipole moment:               no 
     traceless quadrupole moment: no 
     traceless octapole moment:   no 
  
  Atomic charges from electrostatic potential: 
   
 Atom       C1           C2           C3           C4           H5      
 Charge   -0.04704     -0.55432      0.33368     -0.12107      0.22865
   
 Atom       C6           C7           C8           C9           H10     
 Charge   -0.38102      0.11494      0.25449     -0.04932      0.19150
   
 Atom       C11          C12          C13          C14          C15     
 Charge    0.02759      0.29067     -0.24851     -0.13369     -0.14726
   
 Atom       C16          H17          H18          H19          H20     
 Charge   -0.13770      0.15623      0.14254      0.14862      0.08870
   
 Atom       C21          C22          C23          C24          C25     
 Charge    0.09447      0.18096     -0.20220     -0.13930     -0.16213
   
 Atom       C26          H27          H28          H29          H30     
 Charge   -0.17910      0.13680      0.14585      0.14730      0.14343
   
 Atom       Si31         Si32         C33          C34          C35     
 Charge   -0.22488     -0.20522     -0.03629     -0.21184      0.04556
   
 Atom       C36          C37          C38          H39          H40     
 Charge   -0.12636     -0.06749     -0.16997      0.07233      0.08749
   
 Atom       H41          H42          H43          C44          C45     
 Charge    0.04292      0.12253      0.14265     -0.19513     -0.11146
   
 Atom       C46          C47          C48          C49          H50     
 Charge   -0.18460      0.20846     -0.19748     -0.08857      0.14719
   
 Atom       H51          H52          H53          H54          C55     
 Charge    0.12007      0.13513      0.12606      0.13415     -0.14476
   
 Atom       C56          C57          C58          C59          C60     
 Charge   -0.15723     -0.17117      0.21855     -0.23350     -0.12738
   
 Atom       H61          H62          H63          H64          H65     
 Charge    0.14046      0.14493      0.12909      0.13345      0.14045
   
 Atom       C66          C67          C68          C69          C70     
 Charge   -0.11074     -0.19440     -0.06629      0.04318     -0.10499
   
 Atom       C71          H72          H73          H74          H75     
 Charge   -0.16641      0.13457      0.14960      0.08671      0.11974
   
 Atom       H76          C77          C78          C79          C80     
 Charge    0.13856     -0.13311     -0.12851     -0.22439      0.26912
   
 Atom       C81          C82          H83          H84          H85     
 Charge   -0.27777     -0.10426      0.12001      0.11638      0.13495
   
 Atom       H86          H87          C88          C89          C90     
 Charge    0.13617      0.12697     -0.08976     -0.21292     -0.08052
   
 Atom       C91          C92          C93          H94          H95     
 Charge    0.06766     -0.04187     -0.20952      0.13131      0.14596
   
 Atom       H96          H97          H98          O99          O100    
 Charge    0.11252      0.09655      0.14649     -0.11537     -0.40602
   
 Atom       P101         O102         N103         H104         C105    
 Charge    1.12649     -0.62964     -0.38252      0.37588      0.49634
   
 Atom       C106         C107         C108         C109         C110    
 Charge    0.01452     -0.28687      0.19871     -0.25858      0.20037
   
 Atom       C111         H112         H113         H114         H115    
 Charge   -0.30331      0.13744      0.15972      0.04880      0.01132
   
 Atom       H116         H117         N118         S119         O120    
 Charge    0.17988     -0.06327     -0.67531      0.64688     -0.43632
   
 Atom       O121         C122         F123         F124         F125    
 Charge   -0.48997      0.39224     -0.13118     -0.10829     -0.08707
   
 Atom       C126         C127         C128         C129         N130    
 Charge    0.08033     -0.36979     -0.13577     -0.35200      0.06194
   
 Atom       H131         H132         H133         H134         H135    
 Charge    0.03446      0.19247      0.15425      0.20009      0.26184
   
 Atom       S136         O137         O138         C139         C140    
 Charge    0.78180     -0.45368     -0.42606     -0.40266      0.33195
   
 Atom       N141         C142         C143         C144         H145    
 Charge   -0.52338      0.45498     -0.40143      0.19022      0.20217
   
 Atom       H146         H147         H148    
 Charge    0.08678      0.19986      0.12389
  
  sum of atomic charges:     0.000000
   
 RMS Error   9.62E-04 hartrees
 
  Peak memory usage:    816 Mb
  
  end of program ch
   
 Time(ch)  user:       19.4  user+sys:       19.4  wallclock:       61.3
  
  start of program post
  
  Writing input files for PBF
  Peak memory usage:    759 Mb
  
  end of program post
   
 Time(post)  user:        0.9  user+sys:        0.9  wallclock:        3.4

  start of program pbf

Pbf Version 4.10

Molecular surface area:      841.38108   [A2]
Reaction field energy:       -20.16645   [kT]
  Peak memory usage: 721 Mb

  end of program pbf

 Time(pbf)  user:       14.4  user+sys:       14.5  wallclock:       42.2
  
  start of program solv
  
   number of surface charges from PBF   13136
   sum of surface charges     -0.00039
   
  nuclear repulsion energy.......   20680.657059703 hartrees
  Peak memory usage:    894 Mb
  
  end of program solv
   
 Time(solv)  user:       36.8  user+sys:       36.8  wallclock:      117.2
  
  start of program scf
  
 Energy computed with NOPS off.
  
       i  u  d  i  g                   
       t  p  i  c  r                                 RMS    maximum
       e  d  i  u  i                       energy  density   DIIS  
       r  t  s  t  d       total energy    change  change    error 
  
etot    1  N  N  1  U   -5575.59496288406           6.2E-06  2.7E-04
etot    2  N  N  1  U   -5575.59496799142  5.1E-06  0.0E+00  0.0E+00
  
  
 Energy components, in hartrees:
   (A)  Total zero-electron terms....   20684.36551109272
   (B)    Nuclear-nuclear............   20680.65705970261
   (C)    Nuclear-solvent............       3.70845139010
   (E)  Total one-electron terms.....  -48894.96710673011
   (F)    Electron-nuclear...........  -54427.26726693885
   (G)    Electron-solvent...........      -3.75053794579
   (H)    Kinetic....................    5536.05069815453
   (I)  Total two-electron terms.....   22635.00662764598
   (J)    Coulomb....................   23286.25541557306
   (K)    Exchange+Correlation.......    -651.24878792709
   (L)  Electronic energy............  -26259.96047908413  (E+I)
   (N)  Total quantum mech. energy...   -5575.59496799142  (A+L)
   (O)  Gas phase energy.............   -5575.55435291875
   (P)  Solution phase energy........   -5575.57392471357  (Q+R+S)
   (Q)    Total solute energy........   -5575.55288143573  (N-C-G)
   (R)    Total solvent energy.......      -0.02104327784  (C/2+G/2)
   (S)    Solute cavity energy.......       0.00000000000
   (U)  Reorganization energy........       0.00147148302  (Q-O)
   (V)  Solvation energy.............      -0.01957179482  (P-O)
  
 SCFE:  Solution phase energy: DFT(m06-2x)      -5575.57392471357 hartrees
        SCF iterations:   2
  
 
 HOMO energy:    -0.27640
 LUMO energy:    -0.08173
 
  Orbital energies (hartrees): 
   -65.21717   -62.51350   -48.43147   -39.67694   -36.42902   -35.93619
   -34.17397   -34.17202   -33.94137   -30.93437   -22.44353   -20.84371
   -20.57718   -19.82795   -18.44455   -17.35745   -16.82578   -16.72656
   -15.75001   -15.36605   -14.48496   -14.03926   -13.91058   -13.42761
   -13.31629   -13.21146   -13.18818   -12.83939   -12.81684   -12.63196
   -12.05157   -12.01131   -11.32948   -11.32027   -11.26116   -11.24648
   -11.23527   -11.23267   -10.98272   -10.98115   -10.97195   -10.88082
   -10.87327   -10.83602   -10.78347   -10.63192   -10.62503   -10.62069
   -10.61898   -10.61096   -10.59966   -10.59712   -10.58434   -10.56627
   -10.56385   -10.52353   -10.51053   -10.49572   -10.49407   -10.49088
   -10.46016   -10.45864   -10.43300   -10.43220   -10.42656   -10.42117
   -10.38230   -10.37031   -10.36608   -10.34154   -10.33268   -10.31481
   -10.31194   -10.30093   -10.25759   -10.21357   -10.20932   -10.20637
   -10.20578   -10.16758   -10.09314   -10.08926   -10.07782   -10.06805
   -10.05471    -9.98630    -9.96776    -9.78712    -9.72951    -9.72378
    -9.72328    -9.70644    -9.57587    -9.51910    -9.49476    -9.30123
    -9.22457    -9.20448    -9.17402    -8.68039    -8.59359    -8.49692
    -8.17221    -7.85913    -7.69019    -7.13180    -6.76302    -6.73074
    -5.98185    -5.36943    -4.27372    -3.98415    -1.42965    -1.38073
    -1.27700    -1.18006    -1.12985    -1.09601    -1.08656    -1.06923
    -1.02059    -0.99090    -0.96615    -0.96428    -0.96236    -0.96236
    -0.95993    -0.92232    -0.92058    -0.91329    -0.90933    -0.90910
    -0.90900    -0.89264    -0.88979    -0.88832    -0.88543    -0.88178
    -0.87518    -0.86869    -0.82862    -0.82045    -0.81508    -0.81492
    -0.81376    -0.81294    -0.79596    -0.79207    -0.78916    -0.78822
    -0.77802    -0.77322    -0.76771    -0.76288    -0.76036    -0.75856
    -0.75243    -0.74894    -0.74638    -0.73869    -0.73440    -0.73377
    -0.73243    -0.72427    -0.72229    -0.71500    -0.71485    -0.70680
    -0.70553    -0.70316    -0.70285    -0.70152    -0.69780    -0.69285
    -0.68483    -0.68466    -0.68012    -0.67570    -0.67450    -0.67278
    -0.67010    -0.66691    -0.66357    -0.66147    -0.65096    -0.64912
    -0.64508    -0.64389    -0.64229    -0.64217    -0.64188    -0.64169
    -0.63960    -0.63559    -0.63244    -0.63178    -0.61785    -0.61741
    -0.61436    -0.60807    -0.60728    -0.60485    -0.60425    -0.60353
    -0.60335    -0.60295    -0.60273    -0.60132    -0.60014    -0.59809
    -0.59496    -0.59390    -0.59363    -0.58928    -0.58810    -0.58232
    -0.58191    -0.58189    -0.58158    -0.58056    -0.58050    -0.57961
    -0.57505    -0.57321    -0.57240    -0.56806    -0.56661    -0.56630
    -0.56182    -0.56027    -0.55534    -0.55371    -0.55053    -0.54509
    -0.54365    -0.54066    -0.53847    -0.53786    -0.53782    -0.53160
    -0.53006    -0.52975    -0.52769    -0.52301    -0.51880    -0.51524
    -0.51281    -0.51172    -0.51035    -0.50719    -0.50630    -0.50221
    -0.49954    -0.49797    -0.49530    -0.49237    -0.49200    -0.49170
    -0.49110    -0.48928    -0.48900    -0.48591    -0.48456    -0.47885
    -0.47773    -0.47738    -0.47560    -0.47557    -0.47548    -0.47486
    -0.47431    -0.47413    -0.46846    -0.46801    -0.46630    -0.46525
    -0.46148    -0.46105    -0.45982    -0.45928    -0.45858    -0.45846
    -0.45828    -0.45825    -0.45811    -0.45669    -0.45496    -0.45333
    -0.45326    -0.45245    -0.44830    -0.44367    -0.44352    -0.44113
    -0.43940    -0.43868    -0.43524    -0.43144    -0.42964    -0.42896
    -0.42863    -0.42473    -0.42383    -0.42262    -0.42207    -0.42146
    -0.42042    -0.41740    -0.41527    -0.41453    -0.41435    -0.41334
    -0.41274    -0.40905    -0.40685    -0.39777    -0.38957    -0.38386
    -0.37666    -0.36672    -0.36089    -0.34048    -0.33892    -0.33387
    -0.33224    -0.32728    -0.32299    -0.31024    -0.30790    -0.30728
    -0.30712    -0.30451    -0.30441    -0.30280    -0.30194    -0.30191
    -0.30077    -0.29915    -0.29132    -0.27640    -0.08173    -0.03560
    -0.01900    -0.01568     0.00217     0.00687     0.01325     0.01503
     0.01623     0.01905
 
  Peak memory usage:   1029 Mb
  
  end of program scf
   
 Time(scf)  user:     2785.2  user+sys:     2785.2  wallclock:     8835.8
  
  start of program sole
  
    SCRF                   solvation energy
  iteration          Hartrees            kcal/mol
     0               0.0000000            0.0000
     1              -0.0183194          -11.4956
     2              -0.0195718          -12.2815
  
  solvation energy not yet converged... 
  
  Peak memory usage:    813 Mb
  
  end of program sole
   
 Time(sole)  user:        0.2  user+sys:        0.2  wallclock:        0.4
  
  start of program ch
  
  gridpoints used for charge fit        16685
    out of a possible maximum of        16685
  
   Electrostatic potential fitting constrained to reproduce
     total charge:                yes
     dipole moment:               no 
     traceless quadrupole moment: no 
     traceless octapole moment:   no 
  
  Atomic charges from electrostatic potential: 
   
 Atom       C1           C2           C3           C4           H5      
 Charge   -0.04702     -0.55544      0.33480     -0.12312      0.22928
   
 Atom       C6           C7           C8           C9           H10     
 Charge   -0.38215      0.11562      0.25410     -0.04953      0.19204
   
 Atom       C11          C12          C13          C14          C15     
 Charge    0.02771      0.29123     -0.24950     -0.13278     -0.14673
   
 Atom       C16          H17          H18          H19          H20     
 Charge   -0.13819      0.15681      0.14308      0.14909      0.08851
   
 Atom       C21          C22          C23          C24          C25     
 Charge    0.09410      0.18116     -0.20307     -0.13871     -0.16147
   
 Atom       C26          H27          H28          H29          H30     
 Charge   -0.18002      0.13694      0.14641      0.14789      0.14379
   
 Atom       Si31         Si32         C33          C34          C35     
 Charge   -0.22699     -0.20735     -0.03412     -0.21371      0.04509
   
 Atom       C36          C37          C38          H39          H40     
 Charge   -0.12692     -0.06856     -0.16932      0.07230      0.08835
   
 Atom       H41          H42          H43          C44          C45     
 Charge    0.04351      0.12252      0.14284     -0.19485     -0.11108
   
 Atom       C46          C47          C48          C49          H50     
 Charge   -0.18415      0.20719     -0.19952     -0.08781      0.14792
   
 Atom       H51          H52          H53          H54          C55     
 Charge    0.12092      0.13514      0.12594      0.13437     -0.14421
   
 Atom       C56          C57          C58          C59          C60     
 Charge   -0.15760     -0.17140      0.21763     -0.23453     -0.12690
   
 Atom       H61          H62          H63          H64          H65     
 Charge    0.14098      0.14553      0.12914      0.13361      0.14098
   
 Atom       C66          C67          C68          C69          C70     
 Charge   -0.10995     -0.19491     -0.06582      0.04171     -0.10626
   
 Atom       C71          H72          H73          H74          H75     
 Charge   -0.16601      0.13523      0.15032      0.08629      0.11989
   
 Atom       H76          C77          C78          C79          C80     
 Charge    0.13911     -0.13393     -0.12770     -0.22435      0.26928
   
 Atom       C81          C82          H83          H84          H85     
 Charge   -0.27923     -0.10461      0.12003      0.11674      0.13552
   
 Atom       H86          H87          C88          C89          C90     
 Charge    0.13624      0.12717     -0.08907     -0.21347     -0.08090
   
 Atom       C91          C92          C93          H94          H95     
 Charge    0.06735     -0.04219     -0.20917      0.13192      0.14635
   
 Atom       H96          H97          H98          O99          O100    
 Charge    0.11224      0.09646      0.14714     -0.11460     -0.40555
   
 Atom       P101         O102         N103         H104         C105    
 Charge    1.12529     -0.62868     -0.38128      0.37547      0.49545
   
 Atom       C106         C107         C108         C109         C110    
 Charge    0.01680     -0.28577      0.19818     -0.25865      0.19643
   
 Atom       C111         H112         H113         H114         H115    
 Charge   -0.30195      0.13831      0.16017      0.04930      0.01195
   
 Atom       H116         H117         N118         S119         O120    
 Charge    0.18043     -0.06379     -0.67477      0.64595     -0.43685
   
 Atom       O121         C122         F123         F124         F125    
 Charge   -0.48873      0.39264     -0.13119     -0.10856     -0.08722
   
 Atom       C126         C127         C128         C129         N130    
 Charge    0.08026     -0.37198     -0.13603     -0.35172      0.06284
   
 Atom       H131         H132         H133         H134         H135    
 Charge    0.03415      0.19227      0.15465      0.20088      0.26177
   
 Atom       S136         O137         O138         C139         C140    
 Charge    0.77984     -0.45376     -0.42762     -0.39924      0.33223
   
 Atom       N141         C142         C143         C144         H145    
 Charge   -0.52658      0.45354     -0.40253      0.19183      0.20294
   
 Atom       H146         H147         H148    
 Charge    0.08785      0.19979      0.12465
  
  sum of atomic charges:     0.000000
   
 RMS Error   9.63E-04 hartrees
 
  Peak memory usage:    816 Mb
  
  end of program ch
   
 Time(ch)  user:       19.4  user+sys:       19.4  wallclock:       60.1
  
  start of program post
  
  Writing input files for PBF
  Peak memory usage:    759 Mb
  
  end of program post
   
 Time(post)  user:        0.9  user+sys:        0.9  wallclock:        3.4

  start of program pbf

Pbf Version 4.10

Molecular surface area:      841.38108   [A2]
Reaction field energy:       -20.54135   [kT]
  Peak memory usage: 721 Mb

  end of program pbf

 Time(pbf)  user:       14.3  user+sys:       14.3  wallclock:       42.9
  
  start of program solv
  
   number of surface charges from PBF   13136
   sum of surface charges     -0.00040
   
  nuclear repulsion energy.......   20680.657059703 hartrees
  Peak memory usage:    894 Mb
  
  end of program solv
   
 Time(solv)  user:       37.9  user+sys:       37.9  wallclock:      116.5
  
  start of program scf
  
 Energy computed with NOPS off.
  
       i  u  d  i  g                   
       t  p  i  c  r                                 RMS    maximum
       e  d  i  u  i                       energy  density   DIIS  
       r  t  s  t  d       total energy    change  change    error 
  
etot    1  N  N  1  U   -5575.59534476191           5.3E-06  2.1E-04
etot    2  N  N  1  U   -5575.59533251231 -1.2E-05  0.0E+00  0.0E+00
  
  
 Energy components, in hartrees:
   (A)  Total zero-electron terms....   20684.44089266633
   (B)    Nuclear-nuclear............   20680.65705970261
   (C)    Nuclear-solvent............       3.78383296372
   (E)  Total one-electron terms.....  -48894.65981412736
   (F)    Electron-nuclear...........  -54426.87293405509
   (G)    Electron-solvent...........      -3.82616764223
   (H)    Kinetic....................    5536.03928756997
   (I)  Total two-electron terms.....   22634.62358894872
   (J)    Coulomb....................   23285.87163687250
   (K)    Exchange+Correlation.......    -651.24804792378
   (L)  Electronic energy............  -26260.03622517864  (E+I)
   (N)  Total quantum mech. energy...   -5575.59533251231  (A+L)
   (O)  Gas phase energy.............   -5575.55435291875
   (P)  Solution phase energy........   -5575.57416517305  (Q+R+S)
   (Q)    Total solute energy........   -5575.55299783380  (N-C-G)
   (R)    Total solvent energy.......      -0.02116733926  (C/2+G/2)
   (S)    Solute cavity energy.......       0.00000000000
   (U)  Reorganization energy........       0.00135508496  (Q-O)
   (V)  Solvation energy.............      -0.01981225430  (P-O)
  
 SCFE:  Solution phase energy: DFT(m06-2x)      -5575.57416517305 hartrees
        SCF iterations:   2
  
 
 HOMO energy:    -0.24949
 LUMO energy:    -0.08294
 
  Orbital energies (hartrees): 
   -90.19682   -90.15699   -78.21096   -67.01360   -67.00846   -25.29740
   -25.29364   -25.29302   -19.69405   -19.68915   -19.68017   -19.67363
   -19.63601   -19.62755   -19.60194   -14.85034   -14.81105   -14.78269
   -14.74353   -10.81072   -10.68252   -10.65120   -10.62868   -10.62079
   -10.61888   -10.60038   -10.60008   -10.59526   -10.59222   -10.58395
   -10.58226   -10.57916   -10.57234   -10.57157   -10.57041   -10.56925
   -10.56584   -10.56424   -10.56204   -10.56050   -10.55844   -10.55749
   -10.55650   -10.55626   -10.55602   -10.55506   -10.55368   -10.55322
   -10.55291   -10.55265   -10.55230   -10.55129   -10.55107   -10.55078
   -10.55053   -10.55036   -10.55028   -10.54990   -10.54953   -10.54894
   -10.54891   -10.54881   -10.54876   -10.54845   -10.54834   -10.54783
   -10.54764   -10.54692   -10.54691   -10.54690   -10.54687   -10.54677
   -10.54603   -10.54577   -10.54568   -10.54550   -10.54466   -10.54228
   -10.54028   -10.53898   -10.53749   -10.53661   -10.53613   -10.53588
   -10.53532   -10.53481   -10.53298   -10.53252   -10.53184   -10.52331
   -10.52325   -10.52205    -8.50741    -8.46589    -6.99019    -6.42990
    -6.42855    -6.42745    -6.38765    -6.38744    -6.38716    -5.54487
    -5.53910    -5.10859    -5.10782    -5.10599    -3.85470    -3.85429
    -3.85417    -3.84885    -3.84876    -3.84831    -1.46161    -1.37188
    -1.36897    -1.27134    -1.23025    -1.21772    -1.18702    -1.16071
    -1.10844    -1.10041    -1.09124    -1.08832    -1.06634    -0.99258
    -0.98479    -0.98052    -0.96539    -0.94887    -0.94505    -0.94420
    -0.94231    -0.94035    -0.93775    -0.92878    -0.92031    -0.91453
    -0.91064    -0.89303    -0.88954    -0.86451    -0.85268    -0.85196
    -0.84858    -0.84258    -0.84029    -0.83911    -0.83616    -0.83556
    -0.83489    -0.83306    -0.83092    -0.82968    -0.82874    -0.82780
    -0.82678    -0.82591    -0.82178    -0.82004    -0.81557    -0.80024
    -0.79824    -0.77262    -0.76299    -0.75189    -0.73181    -0.72780
    -0.71435    -0.70944    -0.70336    -0.69651    -0.69058    -0.68780
    -0.68616    -0.68552    -0.68170    -0.67847    -0.67709    -0.67436
    -0.67349    -0.67265    -0.67141    -0.67080    -0.66623    -0.66543
    -0.66404    -0.66385    -0.65776    -0.65342    -0.65097    -0.64766
    -0.64050    -0.63372    -0.63109    -0.62796    -0.62434    -0.61073
    -0.60853    -0.60256    -0.59940    -0.59499    -0.59101    -0.58508
    -0.58361    -0.58153    -0.58084    -0.58049    -0.57835    -0.57584
    -0.57000    -0.56644    -0.56249    -0.55916    -0.55905    -0.55414
    -0.55210    -0.54824    -0.54735    -0.54344    -0.53835    -0.53396
    -0.52956    -0.52686    -0.52482    -0.52418    -0.52159    -0.52082
    -0.51921    -0.51791    -0.51638    -0.51618    -0.51298    -0.51126
    -0.50928    -0.50762    -0.50588    -0.50580    -0.50353    -0.50227
    -0.50147    -0.50016    -0.49983    -0.49938    -0.49780    -0.49633
    -0.49525    -0.49284    -0.49022    -0.48813    -0.48609    -0.48535
    -0.48273    -0.48189    -0.48051    -0.47935    -0.47928    -0.47391
    -0.47180    -0.47017    -0.46794    -0.46576    -0.46103    -0.45768
    -0.45563    -0.45278    -0.45053    -0.45007    -0.44825    -0.44658
    -0.44505    -0.43997    -0.43857    -0.43747    -0.43562    -0.43316
    -0.42996    -0.42867    -0.42649    -0.42543    -0.42393    -0.42298
    -0.42083    -0.41977    -0.41931    -0.41768    -0.41452    -0.41188
    -0.40769    -0.40705    -0.40503    -0.39927    -0.39750    -0.39554
    -0.39293    -0.39198    -0.39142    -0.39082    -0.38890    -0.38544
    -0.38397    -0.38058    -0.37736    -0.37664    -0.37558    -0.37446
    -0.36932    -0.36463    -0.35854    -0.35734    -0.35440    -0.35222
    -0.34767    -0.34748    -0.34510    -0.34329    -0.33751    -0.33595
    -0.32894    -0.32596    -0.32485    -0.31531    -0.30728    -0.30559
    -0.30118    -0.30079    -0.30059    -0.29876    -0.29850    -0.29750
    -0.29637    -0.29268    -0.29097    -0.28977    -0.28646    -0.28200
    -0.27665    -0.27172    -0.25353    -0.24949    -0.08294    -0.03626
    -0.01959    -0.01587     0.00147     0.00616     0.01295     0.01437
     0.01556     0.01833
 
  Peak memory usage:   1029 Mb
  
  end of program scf
   
 Time(scf)  user:     2746.0  user+sys:     2746.0  wallclock:     8409.5
  
  start of program sole
  
    SCRF                   solvation energy
  iteration          Hartrees            kcal/mol
     0               0.0000000            0.0000
     1              -0.0183194          -11.4956
     2              -0.0195718          -12.2815
     3              -0.0198123          -12.4324
  
  solvation energy not yet converged... 
  
  Peak memory usage:    813 Mb
  
  end of program sole
   
[...]
       t  p  i  c  r                                 RMS    maximum
       e  d  i  u  i                       energy  density   DIIS  
       r  t  s  t  d       total energy    change  change    error 
  
etot    1  N  N  1  U   -5575.59536774137           1.3E-05  5.3E-04
etot    2  N  Y  1  U   -5575.59526422344 -1.0E-04  8.2E-06  9.3E-04
etot    3  N  Y  1  U   -5575.59542465594  1.6E-04  3.1E-07  1.8E-05
etot    4  N  N  1  U   -5575.59542486149  2.1E-07  0.0E+00  0.0E+00
  
  
 Energy components, in hartrees:
   (A)  Total zero-electron terms....   20684.46442863842
   (B)    Nuclear-nuclear............   20680.65705970261
   (C)    Nuclear-solvent............       3.80736893581
   (E)  Total one-electron terms.....  -48894.93897269909
   (F)    Electron-nuclear...........  -54427.13223199488
   (G)    Electron-solvent...........      -3.84988421442
   (H)    Kinetic....................    5536.04314351021
   (I)  Total two-electron terms.....   22634.87911919919
   (J)    Coulomb....................   23286.12731959244
   (K)    Exchange+Correlation.......    -651.24820039326
   (L)  Electronic energy............  -26260.05985349990  (E+I)
   (N)  Total quantum mech. energy...   -5575.59542486149  (A+L)
   (O)  Gas phase energy.............   -5575.55435291875
   (P)  Solution phase energy........   -5575.57416722218  (Q+R+S)
   (Q)    Total solute energy........   -5575.55290958288  (N-C-G)
   (R)    Total solvent energy.......      -0.02125763931  (C/2+G/2)
   (S)    Solute cavity energy.......       0.00000000000
   (U)  Reorganization energy........       0.00144333588  (Q-O)
   (V)  Solvation energy.............      -0.01981430343  (P-O)
  
 SCFE:  Solution phase energy: DFT(m06-2x)      -5575.57416722218 hartrees
        SCF iterations:   4
  
 
 HOMO energy:    -0.24926
 LUMO energy:    -0.08223
 
  Orbital energies (hartrees): 
   -90.19565   -90.15649   -78.21013   -67.01241   -67.00756   -25.29687
   -25.29373   -25.29268   -19.69267   -19.68866   -19.67885   -19.67475
   -19.63666   -19.62683   -19.60216   -14.84894   -14.80871   -14.78286
   -14.74257   -10.81041   -10.68073   -10.64947   -10.62738   -10.62098
   -10.61793   -10.60107   -10.60030   -10.59356   -10.59349   -10.58376
   -10.58079   -10.58054   -10.57204   -10.57105   -10.57075   -10.57026
   -10.56528   -10.56347   -10.56220   -10.56129   -10.55806   -10.55704
   -10.55627   -10.55544   -10.55533   -10.55464   -10.55395   -10.55368
   -10.55342   -10.55280   -10.55279   -10.55195   -10.55097   -10.55097
   -10.55070   -10.55046   -10.54992   -10.54966   -10.54960   -10.54893
   -10.54868   -10.54859   -10.54844   -10.54838   -10.54827   -10.54754
   -10.54738   -10.54731   -10.54709   -10.54687   -10.54678   -10.54629
   -10.54628   -10.54622   -10.54560   -10.54549   -10.54466   -10.54094
   -10.53922   -10.53741   -10.53640   -10.53601   -10.53525   -10.53491
   -10.53484   -10.53440   -10.53272   -10.53207   -10.53172   -10.52329
   -10.52262   -10.52107    -8.50630    -8.46540    -6.98939    -6.42878
    -6.42743    -6.42633    -6.38716    -6.38695    -6.38667    -5.54371
    -5.53822    -5.10778    -5.10702    -5.10519    -3.85354    -3.85312
    -3.85300    -3.84797    -3.84787    -3.84743    -1.46134    -1.37153
    -1.36878    -1.27069    -1.22952    -1.21727    -1.18614    -1.16022
    -1.10806    -1.09945    -1.09019    -1.08797    -1.06626    -0.99195
    -0.98448    -0.98013    -0.96511    -0.94865    -0.94491    -0.94400
    -0.94194    -0.94023    -0.93788    -0.92851    -0.92013    -0.91407
    -0.91036    -0.89266    -0.88913    -0.86435    -0.85242    -0.85177
    -0.84828    -0.84223    -0.84005    -0.83892    -0.83598    -0.83538
    -0.83458    -0.83295    -0.83066    -0.82931    -0.82824    -0.82736
    -0.82656    -0.82571    -0.82150    -0.81979    -0.81530    -0.79990
    -0.79809    -0.77219    -0.76253    -0.75167    -0.73138    -0.72740
    -0.71403    -0.70896    -0.70306    -0.69611    -0.69023    -0.68750
    -0.68588    -0.68512    -0.68149    -0.67828    -0.67690    -0.67413
    -0.67315    -0.67234    -0.67114    -0.67063    -0.66599    -0.66507
    -0.66368    -0.66354    -0.65750    -0.65318    -0.65073    -0.64743
    -0.64001    -0.63311    -0.63082    -0.62770    -0.62388    -0.61036
    -0.60838    -0.60226    -0.59904    -0.59467    -0.59062    -0.58497
    -0.58346    -0.58134    -0.58069    -0.58029    -0.57820    -0.57560
    -0.56978    -0.56615    -0.56221    -0.55887    -0.55867    -0.55373
    -0.55154    -0.54793    -0.54720    -0.54309    -0.53807    -0.53361
    -0.52924    -0.52658    -0.52460    -0.52389    -0.52127    -0.52067
    -0.51881    -0.51756    -0.51623    -0.51582    -0.51258    -0.51102
    -0.50906    -0.50734    -0.50569    -0.50556    -0.50330    -0.50205
    -0.50137    -0.49992    -0.49961    -0.49915    -0.49759    -0.49605
    -0.49499    -0.49267    -0.48975    -0.48790    -0.48582    -0.48523
    -0.48254    -0.48172    -0.48026    -0.47917    -0.47909    -0.47386
    -0.47175    -0.46989    -0.46764    -0.46547    -0.46079    -0.45741
    -0.45535    -0.45253    -0.45028    -0.44982    -0.44803    -0.44631
    -0.44458    -0.43975    -0.43827    -0.43717    -0.43539    -0.43294
    -0.42964    -0.42849    -0.42626    -0.42524    -0.42370    -0.42271
    -0.42059    -0.41959    -0.41901    -0.41745    -0.41414    -0.41149
    -0.40746    -0.40657    -0.40465    -0.39886    -0.39733    -0.39535
    -0.39277    -0.39179    -0.39115    -0.39058    -0.38879    -0.38513
    -0.38378    -0.38031    -0.37707    -0.37642    -0.37533    -0.37412
    -0.36898    -0.36385    -0.35812    -0.35684    -0.35411    -0.35181
    -0.34714    -0.34693    -0.34453    -0.34273    -0.33706    -0.33552
    -0.32856    -0.32578    -0.32455    -0.31483    -0.30697    -0.30543
    -0.30100    -0.30047    -0.30033    -0.29861    -0.29814    -0.29732
    -0.29613    -0.29227    -0.29070    -0.28932    -0.28611    -0.28171
    -0.27634    -0.27147    -0.25318    -0.24926    -0.08223    -0.03588
    -0.01928    -0.01574     0.00183     0.00655     0.01314     0.01473
     0.01592     0.01870
 
  Peak memory usage:   1029 Mb
  
  end of program scf
   
 Time(scf)  user:     8038.9  user+sys:     8038.9  wallclock:    15386.9
  
  start of program sole
  
    SCRF                   solvation energy
  iteration          Hartrees            kcal/mol
     0               0.0000000            0.0000
     1              -0.0183194          -11.4956
     2              -0.0195718          -12.2815
     3              -0.0198123          -12.4324
     4              -0.0196124          -12.3070
     5              -0.0198143          -12.4337
  
  solvation energy not yet converged... 
  
  Peak memory usage:    813 Mb
  
  end of program sole
   
 Time(sole)  user:        0.1  user+sys:        0.1  wallclock:        0.2
  
  start of program ch
  
  gridpoints used for charge fit        16685
    out of a possible maximum of        16685
  
   Electrostatic potential fitting constrained to reproduce
     total charge:                yes
     dipole moment:               no 
     traceless quadrupole moment: no 
     traceless octapole moment:   no 
  
  Atomic charges from electrostatic potential: 
   
 Atom       C1           C2           C3           C4           H5      
 Charge   -0.04665     -0.55588      0.33550     -0.12288      0.22925
   
 Atom       C6           C7           C8           C9           H10     
 Charge   -0.38239      0.11650      0.25447     -0.04957      0.19182
   
 Atom       C11          C12          C13          C14          C15     
 Charge    0.02721      0.29128     -0.24957     -0.13323     -0.14751
   
 Atom       C16          H17          H18          H19          H20     
 Charge   -0.13743      0.15685      0.14328      0.14931      0.08825
   
 Atom       C21          C22          C23          C24          C25     
 Charge    0.09432      0.18126     -0.20271     -0.13933     -0.16206
   
 Atom       C26          H27          H28          H29          H30     
 Charge   -0.17988      0.13676      0.14657      0.14806      0.14374
   
 Atom       Si31         Si32         C33          C34          C35     
 Charge   -0.22676     -0.20755     -0.03443     -0.21386      0.04557
   
 Atom       C36          C37          C38          H39          H40     
 Charge   -0.12670     -0.06799     -0.17022      0.07218      0.08823
   
 Atom       H41          H42          H43          C44          C45     
 Charge    0.04301      0.12241      0.14297     -0.19560     -0.11118
   
 Atom       C46          C47          C48          C49          H50     
 Charge   -0.18485      0.20887     -0.19939     -0.08803      0.14817
   
 Atom       H51          H52          H53          H54          C55     
 Charge    0.12092      0.13511      0.12587      0.13440     -0.14463
   
 Atom       C56          C57          C58          C59          C60     
 Charge   -0.15783     -0.17120      0.21797     -0.23411     -0.12744
   
 Atom       H61          H62          H63          H64          H65     
 Charge    0.14114      0.14562      0.12895      0.13338      0.14112
   
 Atom       C66          C67          C68          C69          C70     
 Charge   -0.11036     -0.19524     -0.06598      0.04247     -0.10539
   
 Atom       C71          H72          H73          H74          H75     
 Charge   -0.16667      0.13540      0.15043      0.08620      0.11966
   
 Atom       H76          C77          C78          C79          C80     
 Charge    0.13921     -0.13376     -0.12827     -0.22498      0.27024
   
 Atom       C81          C82          H83          H84          H85     
 Charge   -0.27904     -0.10467      0.11989      0.11685      0.13549
   
 Atom       H86          H87          C88          C89          C90     
 Charge    0.13610      0.12710     -0.08956     -0.21356     -0.08055
   
 Atom       C91          C92          C93          H94          H95     
 Charge    0.06756     -0.04170     -0.20979      0.13210      0.14635
   
 Atom       H96          H97          H98          O99          O100    
 Charge    0.11204      0.09628      0.14731     -0.11415     -0.40576
   
 Atom       P101         O102         N103         H104         C105    
 Charge    1.12523     -0.62884     -0.38070      0.37533      0.49681
   
 Atom       C106         C107         C108         C109         C110    
 Charge    0.01583     -0.28655      0.19797     -0.25757      0.19766
   
 Atom       C111         H112         H113         H114         H115    
 Charge   -0.30284      0.13885      0.16033      0.04921      0.01169
   
 Atom       H116         H117         N118         S119         O120    
 Charge    0.18069     -0.06416     -0.67436      0.64574     -0.43683
   
 Atom       O121         C122         F123         F124         F125    
 Charge   -0.48910      0.39281     -0.13141     -0.10857     -0.08724
   
 Atom       C126         C127         C128         C129         N130    
 Charge    0.08123     -0.37171     -0.13597     -0.35284      0.06266
   
 Atom       H131         H132         H133         H134         H135    
 Charge    0.03406      0.19193      0.15452      0.20098      0.26161
   
 Atom       S136         O137         O138         C139         C140    
 Charge    0.78026     -0.45451     -0.42790     -0.40065      0.33222
   
 Atom       N141         C142         C143         C144         H145    
 Charge   -0.52623      0.45478     -0.40263      0.19126      0.20347
   
 Atom       H146         H147         H148    
 Charge    0.08796      0.19976      0.12501
  
  sum of atomic charges:     0.000000
   
 RMS Error   9.63E-04 hartrees
 
  Peak memory usage:    816 Mb
  
  end of program ch
   
 Time(ch)  user:       19.3  user+sys:       19.3  wallclock:       29.1
  
  start of program post
  
  Writing input files for PBF
  Peak memory usage:    759 Mb
  
  end of program post
   
 Time(post)  user:        0.8  user+sys:        0.8  wallclock:        1.6

  start of program pbf

Pbf Version 4.10

Molecular surface area:      841.38108   [A2]
Reaction field energy:       -20.52733   [kT]
  Peak memory usage: 721 Mb

  end of program pbf

 Time(pbf)  user:       14.1  user+sys:       14.2  wallclock:       21.0
  
  start of program solv
  
   number of surface charges from PBF   13136
   sum of surface charges     -0.00039
   
  nuclear repulsion energy.......   20680.657059703 hartrees
  Peak memory usage:    894 Mb
  
  end of program solv
   
 Time(solv)  user:       35.8  user+sys:       35.8  wallclock:       57.5
  
  start of program scf
  
 Energy computed with NOPS off.
  
       i  u  d  i  g                   
       t  p  i  c  r                                 RMS    maximum
       e  d  i  u  i                       energy  density   DIIS  
       r  t  s  t  d       total energy    change  change    error 
  
etot    1  N  N  1  U   -5575.59534181301           7.6E-07  3.1E-05
etot    2  N  N  1  U   -5575.59534188783  7.5E-08  0.0E+00  0.0E+00
  
  
 Energy components, in hartrees:
   (A)  Total zero-electron terms....   20684.43196086773
   (B)    Nuclear-nuclear............   20680.65705970261
   (C)    Nuclear-solvent............       3.77490116512
   (E)  Total one-electron terms.....  -48894.86748532935
   (F)    Electron-nuclear...........  -54427.09299427916
   (G)    Electron-solvent...........      -3.81730531773
   (H)    Kinetic....................    5536.04281426754
   (I)  Total two-electron terms.....   22634.84018257379
   (J)    Coulomb....................   23286.08833031968
   (K)    Exchange+Correlation.......    -651.24814774588
   (L)  Electronic energy............  -26260.02730275556  (E+I)
   (N)  Total quantum mech. energy...   -5575.59534188783  (A+L)
   (O)  Gas phase energy.............   -5575.55435291875
   (P)  Solution phase energy........   -5575.57413981152  (Q+R+S)
   (Q)    Total solute energy........   -5575.55293773521  (N-C-G)
   (R)    Total solvent energy.......      -0.02120207631  (C/2+G/2)
   (S)    Solute cavity energy.......       0.00000000000
   (U)  Reorganization energy........       0.00141518354  (Q-O)
   (V)  Solvation energy.............      -0.01978689277  (P-O)
  
 SCFE:  Solution phase energy: DFT(m06-2x)      -5575.57413981152 hartrees
        SCF iterations:   2
  
 
 HOMO energy:    -0.24926
 LUMO energy:    -0.08228
 
  Orbital energies (hartrees): 
   -90.19569   -90.15648   -78.21013   -67.01250   -67.00762   -25.29689
   -25.29369   -25.29268   -19.69269   -19.68862   -19.67901   -19.67471
   -19.63658   -19.62692   -19.60215   -14.84892   -14.80896   -14.78277
   -14.74256   -10.81040   -10.68086   -10.64963   -10.62741   -10.62097
   -10.61792   -10.60099   -10.60026   -10.59366   -10.59341   -10.58378
   -10.58096   -10.58042   -10.57207   -10.57107   -10.57075   -10.57015
   -10.56534   -10.56349   -10.56223   -10.56117   -10.55813   -10.55714
   -10.55628   -10.55555   -10.55539   -10.55467   -10.55395   -10.55360
   -10.55342   -10.55275   -10.55272   -10.55188   -10.55095   -10.55090
   -10.55067   -10.55050   -10.54991   -10.54968   -10.54955   -10.54886
   -10.54869   -10.54865   -10.54847   -10.54838   -10.54831   -10.54759
   -10.54730   -10.54730   -10.54703   -10.54685   -10.54678   -10.54626
   -10.54624   -10.54615   -10.54555   -10.54545   -10.54465   -10.54102
   -10.53926   -10.53751   -10.53649   -10.53592   -10.53531   -10.53504
   -10.53490   -10.53438   -10.53276   -10.53197   -10.53176   -10.52333
   -10.52266   -10.52110    -8.50635    -8.46539    -6.98939    -6.42883
    -6.42748    -6.42638    -6.38716    -6.38695    -6.38666    -5.54379
    -5.53828    -5.10779    -5.10702    -5.10519    -3.85362    -3.85320
    -3.85309    -3.84803    -3.84793    -3.84749    -1.46133    -1.37153
    -1.36877    -1.27073    -1.22952    -1.21727    -1.18614    -1.16026
    -1.10807    -1.09954    -1.09023    -1.08796    -1.06623    -0.99196
    -0.98451    -0.98016    -0.96514    -0.94865    -0.94491    -0.94401
    -0.94194    -0.94022    -0.93786    -0.92849    -0.92013    -0.91410
    -0.91037    -0.89269    -0.88916    -0.86438    -0.85244    -0.85177
    -0.84829    -0.84224    -0.84006    -0.83892    -0.83598    -0.83539
    -0.83458    -0.83294    -0.83067    -0.82932    -0.82826    -0.82737
    -0.82656    -0.82572    -0.82151    -0.81978    -0.81528    -0.79992
    -0.79808    -0.77221    -0.76253    -0.75168    -0.73139    -0.72742
    -0.71406    -0.70898    -0.70306    -0.69613    -0.69024    -0.68749
    -0.68588    -0.68514    -0.68149    -0.67828    -0.67690    -0.67413
    -0.67316    -0.67235    -0.67115    -0.67063    -0.66600    -0.66508
    -0.66368    -0.66355    -0.65750    -0.65318    -0.65072    -0.64743
    -0.64003    -0.63315    -0.63083    -0.62770    -0.62389    -0.61037
    -0.60837    -0.60227    -0.59905    -0.59469    -0.59064    -0.58497
    -0.58345    -0.58134    -0.58070    -0.58030    -0.57819    -0.57560
    -0.56977    -0.56614    -0.56221    -0.55888    -0.55868    -0.55375
    -0.55155    -0.54793    -0.54721    -0.54310    -0.53807    -0.53361
    -0.52924    -0.52660    -0.52459    -0.52391    -0.52127    -0.52067
    -0.51882    -0.51757    -0.51623    -0.51584    -0.51261    -0.51103
    -0.50906    -0.50736    -0.50569    -0.50555    -0.50330    -0.50205
    -0.50137    -0.49992    -0.49961    -0.49915    -0.49759    -0.49605
    -0.49500    -0.49268    -0.48977    -0.48791    -0.48581    -0.48522
    -0.48254    -0.48172    -0.48027    -0.47917    -0.47908    -0.47384
    -0.47173    -0.46990    -0.46764    -0.46547    -0.46079    -0.45742
    -0.45536    -0.45253    -0.45029    -0.44983    -0.44804    -0.44632
    -0.44460    -0.43976    -0.43828    -0.43718    -0.43539    -0.43296
    -0.42965    -0.42849    -0.42627    -0.42524    -0.42370    -0.42272
    -0.42060    -0.41958    -0.41901    -0.41744    -0.41415    -0.41150
    -0.40746    -0.40659    -0.40466    -0.39887    -0.39733    -0.39535
    -0.39277    -0.39179    -0.39116    -0.39058    -0.38877    -0.38514
    -0.38379    -0.38031    -0.37706    -0.37643    -0.37533    -0.37413
    -0.36898    -0.36391    -0.35813    -0.35686    -0.35412    -0.35183
    -0.34716    -0.34695    -0.34455    -0.34276    -0.33708    -0.33554
    -0.32859    -0.32579    -0.32457    -0.31484    -0.30698    -0.30543
    -0.30101    -0.30048    -0.30034    -0.29860    -0.29814    -0.29732
    -0.29613    -0.29228    -0.29070    -0.28934    -0.28612    -0.28171
    -0.27633    -0.27148    -0.25320    -0.24926    -0.08228    -0.03590
    -0.01930    -0.01575     0.00180     0.00653     0.01312     0.01471
     0.01591     0.01869
 
  Peak memory usage:   1029 Mb
  
  end of program scf
   
 Time(scf)  user:     2609.7  user+sys:     2609.7  wallclock:     3436.3
  
  start of program sole
  
    SCRF                   solvation energy
  iteration          Hartrees            kcal/mol
     0               0.0000000            0.0000
     1              -0.0183194          -11.4956
     2              -0.0195718          -12.2815
     3              -0.0198123          -12.4324
     4              -0.0196124          -12.3070
     5              -0.0198143          -12.4337
     6              -0.0197869          -12.4165
  
  stopping: solvation energy converged
  
  iterations:   6    sfinal:    -12.4165 kcal/mol
  
  Peak memory usage:    813 Mb
  
  end of program sole
   
 Time(sole)  user:        0.1  user+sys:        0.1  wallclock:        0.1
  
  start of program post
  
  Writing input files for PBF
  Peak memory usage:    759 Mb
  
  end of program post
   
 Time(post)  user:        0.7  user+sys:        0.7  wallclock:        1.0

 Total cpu seconds     user:   68231.149   user+sys:   68231.149
  
 Total elapsed time:    198083 seconds

Job Type-II-Z-sulfonyl-bind-4-chkp-2-scan-unrestrained-IRC-max-disp-SPE completed on tethys at Sun Mar 26 21:25:13 2017
