Job Toru-SiPh3-NTf-Type-I-E-3-chkp-unrestrained-IRC-min-disp-SPE started on tethys at Mon Mar 20 12:02:51 2017
jobid: tethys-0-58cfc4e8

  +--------------------------------------------------------------------+
  |  Jaguar version 9.5, release  11                                   |
  |                                                                    |
  |  Copyright Schrodinger, Inc.                                       |
  |  All Rights Reserved.                                              |
  |                                                                    |
  |  The following have contributed to Jaguar (listed alphabetically): |
  |  Mike Beachy, Art Bochevarov, Dale Braden, Yixiang Cao,            |
  |  Chris Cortis, Rich Friesner, Bill Goddard, Hod Greeley,           |
  |  Tom Hughes, Leif Jacobson, Jean-Marc Langlois,                    |
  |  Daniel Mainz, Rob Murphy, Dean Philipp, Tom Pollard,              |
  |  Murco Ringnalda, Mark Watson, Haoyu Yu.                           |
  |                                                                    |
  |  Use of this program should be acknowledged in publications as:    |
  |                                                                    |
  |  Jaguar, version 9.5, Schrodinger, Inc., New York, NY, 2017.       |
  |                                                                    |
  |  A. D. Bochevarov, E. Harder, T. F. Hughes, J. R. Greenwood,       |
  |  D. A. Braden, D. M. Philipp, D. Rinaldo, M. D. Halls,             |
  |  J. Zhang, R. A. Friesner, "Jaguar: A High-Performance Quantum     |
  |  Chemistry Software Program with Strengths in Life and Materials   |
  |  Sciences", Int. J. Quantum Chem., 2013, 113(18), 2110-2142.       |
  +--------------------------------------------------------------------+
  
  start of program pre
  
  Job name: Toru-SiPh3-NTf-Type-I-E-3-chkp-unrestrained-IRC-min-disp-SPE
  Executables used: /usr/local/shared/schrodinger/current/jaguar-v9.5/bin/Linux-x86_64
  Temporary files : /scratch/ab2144/Toru-SiPh3-NTf-Type-I-E-3-chkp-unrestrained-IRC-min-disp-SPE
  Maestro file (input):  Toru-SiPh3-NTf-Type-I-E-3-chkp-unrestrained-IRC-min-disp-SPE.mae
  Maestro file (output): Toru-SiPh3-NTf-Type-I-E-3-chkp-unrestrained-IRC-min-disp-SPE.01.mae
  
  basis set:             6-31g**                         
  net molecular charge:    0
  multiplicity:            1
  
  keygrid settings 
    wispc.....   7.500E-01
    ldens.....   0
    denspc....   7.500E-01
  
   grid     daf set  nls  grid set  Q type
  ------    -------  ---  --------  ------
  coarse       1      1       1        1
  medium       2      2       2        1
  fine         3      2       3        0
  ultrafine    4      2       4        1
  charge       0      1      -1        1
  gradient     5      2       4        1
  density      0      1       0        0
  DFT-fine     0      1     -13        0
  DFT-med.     0      1     -13        0
  DFT-grad     0      1     -13        0
  DFT-der2     0      1       0        0
  DFT-cphf     0      1       0        0
  LMP2-enrg    4      2       4        1
  LMP2-grad    5      2       2        1
  DFT-cphf2    0      1       0        0
  PBF-dens     0      1       0        0
  plotting     0      1       0        0
  Rel-grad     0      1     -17        0
  
  idftgrdm  100
  ndftgrdm   50    0    0
  idftgrdf  111
  ndftgrdf   85    0    0
  idftgrdg  111
  ndftgrdg   80    3    0
  idftgrdu  433
  ndftgrdu  105    0    0
  idftgrdd  433
  ndftgrdd  105    0    0
  idftgrdc  433
  ndftgrdc   26    0    0
  idftgrdp  433
  ndftgrdp   18    0    0
  
  number of basis functions....         1680
  
 Input geometry:
                                   angstroms
  atom               x                 y                 z
  C1           -2.1240000000      4.9986000000      1.5711000000 
  C2           -2.7045000000      3.6626000000      1.2662000000 
  C3           -2.7805000000      5.8557000000      2.3615000000 
  C4           -3.8832000000      3.3143000000      1.8277000000 
  C5           -1.9873000000      2.6816000000      0.3997000000 
  C6           -4.6050000000      4.2733000000      2.6958000000 
  C7           -4.4698000000      1.9886000000      1.5506000000 
  C8           -4.0821000000      5.4787000000      2.9454000000 
  C9           -2.4396000000      1.4158000000      0.3125000000 
  C10          -0.7929000000      3.0826000000     -0.3806000000 
  C11          -3.8102000000      1.0933000000      0.7993000000 
  O12          -1.7043000000      0.4676000000     -0.3548000000 
  Si13         -4.6765000000     -0.4671000000      0.2482000000 
  C14          -0.8564000000      4.0450000000     -1.3292000000 
  C15           0.5191000000      2.4599000000     -0.0451000000 
  C16           0.3970000000      4.5755000000     -1.9159000000 
  C17          -2.1369000000      4.6183000000     -1.8175000000 
  C18           1.5819000000      4.1330000000     -1.4810000000 
  C19           0.3084000000      5.6308000000     -2.9448000000 
  C20           1.6586000000      3.0614000000     -0.4602000000 
  Si21          3.3548000000      2.5800000000      0.1650000000 
  O22           0.5619000000      1.3798000000      0.8068000000 
  C23          -2.1406000000      5.5754000000     -2.7529000000 
  C24          -0.8838000000      6.0969000000     -3.3320000000 
  P25          -0.2961000000      0.0440000000      0.3749000000 
  O26          -0.5382000000     -0.6768000000      1.6823000000 
  N27           0.4793000000     -0.8775000000     -0.6920000000 
  C28          -6.4847000000     -0.4045000000      0.6885000000 
  C29          -4.6968000000     -0.6013000000     -1.6058000000 
  C30          -3.8582000000     -1.9260000000      1.0600000000 
  C31           3.8580000000      0.9864000000     -0.6467000000 
  C32           4.5815000000      3.9109000000     -0.2690000000 
  C33           3.4552000000      2.5174000000      2.0220000000 
  C34          -7.0721000000     -1.3648000000      1.4231000000 
  C35          -7.3074000000      0.7094000000      0.1563000000 
  C36          -4.3319000000      0.4306000000     -2.3859000000 
  C37          -5.2550000000     -1.8238000000     -2.2326000000 
  C38          -3.8826000000     -2.0388000000      2.3985000000 
  C39          -3.2528000000     -3.0107000000      0.2501000000 
  C40           4.1188000000     -0.1134000000      0.0747000000 
  C41           4.0309000000      0.9490000000     -2.1187000000 
  C42           4.3561000000      5.1745000000      0.1297000000 
  C43           5.8347000000      3.5907000000     -0.9965000000 
  C44           2.4354000000      2.9177000000      2.8008000000 
  C45           4.7512000000      2.1596000000      2.6490000000 
  C46          -8.5167000000     -1.2894000000      1.7265000000 
  C47          -9.2498000000     -0.2733000000      1.2566000000 
  C48          -8.6160000000      0.7729000000      0.4298000000 
  C49          -4.4403000000      0.3258000000     -3.8563000000 
  C50          -4.9133000000     -0.7931000000     -4.4168000000 
  C51          -5.3465000000     -1.9181000000     -3.5646000000 
  C52          -3.3971000000     -3.2727000000      3.0491000000 
  C53          -2.9015000000     -4.2709000000      2.3086000000 
  C54          -2.8031000000     -4.1230000000      0.8431000000 
  C55           4.5810000000     -1.3499000000     -0.5896000000 
  C56           4.7654000000     -1.3687000000     -1.9144000000 
  C57           4.4787000000     -0.1621000000     -2.7166000000 
  C58           5.3256000000      6.2419000000     -0.1917000000 
  C59           6.4437000000      5.9508000000     -0.8662000000 
  C60           6.7133000000      4.5598000000     -1.2821000000 
  C61           2.5928000000      2.9574000000      4.2698000000 
  C62           3.7641000000      2.6317000000      4.8291000000 
  C63           4.8982000000      2.2192000000      3.9782000000 
  C64           5.0795000000     -2.8376000000      3.4584000000 
  C65           4.1751000000     -3.5421000000      2.6637000000 
  C66           2.9242000000     -2.9978000000      2.3421000000 
  C67           2.6044000000     -1.7187000000      2.8176000000 
  C68           3.4948000000     -1.0331000000      3.6429000000 
  C69           4.7337000000     -1.5850000000      3.9660000000 
  C70           1.9444000000     -3.8632000000      1.5660000000 
  N71           1.6365000000     -3.4106000000      0.2264000000 
  S72           1.1702000000     -4.5478000000     -0.9137000000 
  O73           0.9928000000     -5.8141000000     -0.1801000000 
  O74           0.0812000000     -4.0040000000     -1.7229000000 
  C75           2.6275000000     -4.7133000000     -1.9788000000 
  C76           2.5533000000     -4.3113000000     -3.3084000000 
  C77           3.7076000000     -4.4740000000     -4.0751000000 
  C78           4.8453000000     -5.0143000000     -3.4795000000 
  C79           4.7951000000     -5.3657000000     -2.1281000000 
  N80           3.6989000000     -5.2201000000     -1.3769000000 
  N81          -0.1115000000     -2.9437000000      2.7635000000 
  C82          -0.2930000000     -2.9029000000      4.0528000000 
  C83           0.2438000000     -4.0770000000      4.6916000000 
  C84           0.7992000000     -4.8278000000      3.7087000000 
  C85           0.6160000000     -4.1491000000      2.3998000000 
  H86          -1.1623000000      5.2883000000      1.1687000000 
  H87          -2.3547000000      6.8262000000      2.5813000000 
  H88          -5.5587000000      4.0018000000      3.1313000000 
  H89          -5.4559000000      1.7699000000      1.9370000000 
  H90          -4.6094000000      6.1787000000      3.5806000000 
  H91          -3.0863000000      4.2570000000     -1.4436000000 
  H92           2.4907000000      4.5386000000     -1.9068000000 
  H93           1.2087000000      6.0378000000     -3.3895000000 
  H94          -3.0839000000      5.9753000000     -3.1020000000 
  H95          -0.9344000000      6.8717000000     -4.0862000000 
  H96          -6.5137000000     -2.2130000000      1.7911000000 
  H97          -6.8510000000      1.4784000000     -0.4548000000 
  H98          -3.9788000000      1.3595000000     -1.9609000000 
  H99          -5.5949000000     -2.6456000000     -1.6147000000 
  H100         -4.3180000000     -1.2596000000      3.0122000000 
  H101         -3.1748000000     -2.9190000000     -0.8220000000 
  H102          4.0209000000     -0.1027000000      1.1461000000 
  H103          3.8128000000      1.8271000000     -2.7139000000 
  H104          3.4601000000      5.4295000000      0.6826000000 
  H105          6.0623000000      2.5744000000     -1.2848000000 
  H106          1.5027000000      3.2577000000      2.3754000000 
  H107          5.5891000000      1.8590000000      2.0323000000 
  H108         -8.9807000000     -2.0610000000      2.3273000000 
  H109        -10.3080000000     -0.2185000000      1.4769000000 
  H110         -9.2130000000      1.5887000000      0.0431000000 
  H111         -4.1324000000      1.1564000000     -4.4782000000 
  H112         -4.9899000000     -0.8718000000     -5.4934000000 
  H113         -5.7496000000     -2.8136000000     -4.0195000000 
  H114         -3.4533000000     -3.3712000000      4.1254000000 
  H115         -2.5465000000     -5.1761000000      2.7840000000 
  H116         -2.3643000000     -4.9155000000      0.2506000000 
  H117          4.7848000000     -2.2347000000     -0.0012000000 
  H118          5.1164000000     -2.2679000000     -2.4015000000 
  H119          4.6145000000     -0.1849000000     -3.7900000000 
  H120          5.1284000000      7.2594000000      0.1200000000 
  H121          7.1558000000      6.7312000000     -1.1016000000 
  H122          7.6290000000      4.3245000000     -1.8090000000 
  H123          1.7616000000      3.2649000000      4.8910000000 
  H124          3.8824000000      2.6676000000      5.9043000000 
  H125          5.8453000000      1.9585000000      4.4324000000 
  H126          6.0483000000     -3.2720000000      3.6863000000 
  H127          4.4448000000     -4.5218000000      2.2787000000 
  H128          1.6762000000     -1.2333000000      2.5405000000 
  H129          3.2109000000     -0.0577000000      4.0201000000 
  H130          5.4268000000     -1.0391000000      4.5991000000 
  H131          2.3847000000     -4.8558000000      1.4597000000 
  H132          1.6498000000     -3.8616000000     -3.6973000000 
  H133          3.7166000000     -4.1710000000     -5.1173000000 
  H134          5.7627000000     -5.1513000000     -4.0425000000 
  H135          5.6695000000     -5.7768000000     -1.6287000000 
  H136         -0.3435000000     -2.0939000000      2.1324000000 
  H137         -0.7853000000     -2.0539000000      4.5139000000 
  H138          0.2027000000     -4.2832000000      5.7518000000 
  H139          1.2963000000     -5.7837000000      3.8135000000 
  H140          0.0134000000     -4.7732000000      1.7260000000 
  S141          0.7614000000     -0.5346000000     -2.2385000000 
  O142          1.7495000000     -1.4911000000     -2.7450000000 
  C143         -0.8276000000     -0.9769000000     -3.1629000000 
  O144          0.9322000000      0.8998000000     -2.5178000000 
  F145         -1.6230000000     -1.7689000000     -2.4480000000 
  F146         -1.4867000000      0.1460000000     -3.4647000000 
  F147         -0.5048000000     -1.6009000000     -4.3041000000 
  H148          1.3220000000     -2.4488000000      0.0033000000 
   
  principal moments of inertia:
        amu*angstrom^2:    20711.35118    25155.53794    31625.88135
                g*cm^2: 3.43920035E-36 4.17717483E-36 5.25160050E-36
   
  rotational constants:
               cm^(-1):      0.00081393      0.00067014      0.00053303
                   GHz:      0.02440106      0.02009017      0.01597992
   
  Molecular weight:    1308.28 amu
   
  Stoichiometry: Si2C73PN4H56S2O7F3
[running at reduced cpu priority]
  Molecular Point Group: C1      
  Point Group used: C1
  
  nuclear repulsion energy.......   20887.042715211 hartrees
 
 Non-default options chosen:
   SCF calculation type: DFT(m06-2x)                 
   DFT=M06-2X
   Solvation energy will be computed using PBF
     -solute cavity energy will not be included
     -surface area terms will not be included
   Highest accuracy cutoffs used in SCF
   Solvent: other                                                           
   Internal dielectric constant:    1.000
   Continuum dielectric constant:   2.380
   Solvent probe molecule radius:   2.760
  
 Temporary integer options set:
     73=  2
  
  atom       vdw   vdw2    cov     mass  grid  daf  charge   basis
  C1        1.949  1.900  0.770   12.000    Y    Y      Y    6-31g**
  C2        1.949  1.900  0.770   12.000    Y    Y      Y    6-31g**
  C3        1.949  1.900  0.770   12.000    Y    Y      Y    6-31g**
  C4        1.949  1.900  0.770   12.000    Y    Y      Y    6-31g**
  C5        1.949  1.900  0.770   12.000    Y    Y      Y    6-31g**
  C6        1.949  1.900  0.770   12.000    Y    Y      Y    6-31g**
  C7        1.949  1.900  0.770   12.000    Y    Y      Y    6-31g**
  C8        1.949  1.900  0.770   12.000    Y    Y      Y    6-31g**
  C9        1.949  1.900  0.770   12.000    Y    Y      Y    6-31g**
  C10       1.949  1.900  0.770   12.000    Y    Y      Y    6-31g**
  C11       1.949  1.900  0.770   12.000    Y    Y      Y    6-31g**
  O12       1.702  1.600  0.730   15.995    Y    Y      Y    6-31g**
  Si13      2.217  2.147  1.110   27.977    Y    Y      Y    6-31g**
  C14       1.949  1.900  0.770   12.000    Y    Y      Y    6-31g**
  C15       1.949  1.900  0.770   12.000    Y    Y      Y    6-31g**
  C16       1.949  1.900  0.770   12.000    Y    Y      Y    6-31g**
  C17       1.949  1.900  0.770   12.000    Y    Y      Y    6-31g**
  C18       1.949  1.900  0.770   12.000    Y    Y      Y    6-31g**
  C19       1.949  1.900  0.770   12.000    Y    Y      Y    6-31g**
  C20       1.949  1.900  0.770   12.000    Y    Y      Y    6-31g**
  Si21      2.217  2.147  1.110   27.977    Y    Y      Y    6-31g**
  O22       1.702  1.600  0.730   15.995    Y    Y      Y    6-31g**
  C23       1.949  1.900  0.770   12.000    Y    Y      Y    6-31g**
  C24       1.949  1.900  0.770   12.000    Y    Y      Y    6-31g**
  P25       2.147  2.074  1.060   30.974    Y    Y      Y    6-31g**
  O26       1.702  1.600  0.730   15.995    Y    Y      Y    6-31g**
  N27       1.831  1.600  0.750   14.003    Y    Y      Y    6-31g**
  C28       1.949  1.900  0.770   12.000    Y    Y      Y    6-31g**
  C29       1.949  1.900  0.770   12.000    Y    Y      Y    6-31g**
  C30       1.949  1.900  0.770   12.000    Y    Y      Y    6-31g**
  C31       1.949  1.900  0.770   12.000    Y    Y      Y    6-31g**
  C32       1.949  1.900  0.770   12.000    Y    Y      Y    6-31g**
  C33       1.949  1.900  0.770   12.000    Y    Y      Y    6-31g**
  C34       1.949  1.900  0.770   12.000    Y    Y      Y    6-31g**
  C35       1.949  1.900  0.770   12.000    Y    Y      Y    6-31g**
  C36       1.949  1.900  0.770   12.000    Y    Y      Y    6-31g**
  C37       1.949  1.900  0.770   12.000    Y    Y      Y    6-31g**
  C38       1.949  1.900  0.770   12.000    Y    Y      Y    6-31g**
  C39       1.949  1.900  0.770   12.000    Y    Y      Y    6-31g**
  C40       1.949  1.900  0.770   12.000    Y    Y      Y    6-31g**
  C41       1.949  1.900  0.770   12.000    Y    Y      Y    6-31g**
  C42       1.949  1.900  0.770   12.000    Y    Y      Y    6-31g**
  C43       1.949  1.900  0.770   12.000    Y    Y      Y    6-31g**
  C44       1.949  1.900  0.770   12.000    Y    Y      Y    6-31g**
  C45       1.949  1.900  0.770   12.000    Y    Y      Y    6-31g**
  C46       1.949  1.900  0.770   12.000    Y    Y      Y    6-31g**
  C47       1.949  1.900  0.770   12.000    Y    Y      Y    6-31g**
  C48       1.949  1.900  0.770   12.000    Y    Y      Y    6-31g**
  C49       1.949  1.900  0.770   12.000    Y    Y      Y    6-31g**
  C50       1.949  1.900  0.770   12.000    Y    Y      Y    6-31g**
  C51       1.949  1.900  0.770   12.000    Y    Y      Y    6-31g**
  C52       1.949  1.900  0.770   12.000    Y    Y      Y    6-31g**
  C53       1.949  1.900  0.770   12.000    Y    Y      Y    6-31g**
  C54       1.949  1.900  0.770   12.000    Y    Y      Y    6-31g**
  C55       1.949  1.900  0.770   12.000    Y    Y      Y    6-31g**
  C56       1.949  1.900  0.770   12.000    Y    Y      Y    6-31g**
  C57       1.949  1.900  0.770   12.000    Y    Y      Y    6-31g**
  C58       1.949  1.900  0.770   12.000    Y    Y      Y    6-31g**
  C59       1.949  1.900  0.770   12.000    Y    Y      Y    6-31g**
  C60       1.949  1.900  0.770   12.000    Y    Y      Y    6-31g**
  C61       1.949  1.900  0.770   12.000    Y    Y      Y    6-31g**
  C62       1.949  1.900  0.770   12.000    Y    Y      Y    6-31g**
  C63       1.949  1.900  0.770   12.000    Y    Y      Y    6-31g**
  C64       1.949  1.900  0.770   12.000    Y    Y      Y    6-31g**
  C65       1.949  1.900  0.770   12.000    Y    Y      Y    6-31g**
  C66       1.949  1.900  0.770   12.000    Y    Y      Y    6-31g**
  C67       1.949  1.900  0.770   12.000    Y    Y      Y    6-31g**
  C68       1.949  1.900  0.770   12.000    Y    Y      Y    6-31g**
  C69       1.949  1.900  0.770   12.000    Y    Y      Y    6-31g**
  C70       1.949  1.900  0.770   12.000    Y    Y      Y    6-31g**
  N71       1.831  1.600  0.750   14.003    Y    Y      Y    6-31g**
  S72       2.070  1.900  1.020   31.972    Y    Y      Y    6-31g**
  O73       1.702  1.600  0.730   15.995    Y    Y      Y    6-31g**
  O74       1.702  1.600  0.730   15.995    Y    Y      Y    6-31g**
  C75       1.949  1.900  0.770   12.000    Y    Y      Y    6-31g**
  C76       1.949  1.900  0.770   12.000    Y    Y      Y    6-31g**
  C77       1.949  1.900  0.770   12.000    Y    Y      Y    6-31g**
  C78       1.949  1.900  0.770   12.000    Y    Y      Y    6-31g**
  C79       1.949  1.900  0.770   12.000    Y    Y      Y    6-31g**
  N80       1.831  1.600  0.750   14.003    Y    Y      Y    6-31g**
  N81       1.831  1.600  0.750   14.003    Y    Y      Y    6-31g**
  C82       1.949  1.900  0.770   12.000    Y    Y      Y    6-31g**
  C83       1.949  1.900  0.770   12.000    Y    Y      Y    6-31g**
  C84       1.949  1.900  0.770   12.000    Y    Y      Y    6-31g**
  C85       1.949  1.900  0.770   12.000    Y    Y      Y    6-31g**
  H86       1.597  1.150  0.320    1.008    Y    Y      Y    6-31g**
  H87       1.597  1.150  0.320    1.008    Y    Y      Y    6-31g**
  H88       1.597  1.150  0.320    1.008    Y    Y      Y    6-31g**
  H89       1.597  1.150  0.320    1.008    Y    Y      Y    6-31g**
  H90       1.597  1.150  0.320    1.008    Y    Y      Y    6-31g**
  H91       1.597  1.150  0.320    1.008    Y    Y      Y    6-31g**
  H92       1.597  1.150  0.320    1.008    Y    Y      Y    6-31g**
  H93       1.597  1.150  0.320    1.008    Y    Y      Y    6-31g**
  H94       1.597  1.150  0.320    1.008    Y    Y      Y    6-31g**
  H95       1.597  1.150  0.320    1.008    Y    Y      Y    6-31g**
  H96       1.597  1.150  0.320    1.008    Y    Y      Y    6-31g**
  H97       1.597  1.150  0.320    1.008    Y    Y      Y    6-31g**
  H98       1.597  1.150  0.320    1.008    Y    Y      Y    6-31g**
  H99       1.597  1.150  0.320    1.008    Y    Y      Y    6-31g**
  H100      1.597  1.150  0.320    1.008    Y    Y      Y    6-31g**
  H101      1.597  1.150  0.320    1.008    Y    Y      Y    6-31g**
  H102      1.597  1.150  0.320    1.008    Y    Y      Y    6-31g**
  H103      1.597  1.150  0.320    1.008    Y    Y      Y    6-31g**
  H104      1.597  1.150  0.320    1.008    Y    Y      Y    6-31g**
  H105      1.597  1.150  0.320    1.008    Y    Y      Y    6-31g**
  H106      1.597  1.150  0.320    1.008    Y    Y      Y    6-31g**
  H107      1.597  1.150  0.320    1.008    Y    Y      Y    6-31g**
  H108      1.597  1.150  0.320    1.008    Y    Y      Y    6-31g**
  H109      1.597  1.150  0.320    1.008    Y    Y      Y    6-31g**
  H110      1.597  1.150  0.320    1.008    Y    Y      Y    6-31g**
  H111      1.597  1.150  0.320    1.008    Y    Y      Y    6-31g**
  H112      1.597  1.150  0.320    1.008    Y    Y      Y    6-31g**
  H113      1.597  1.150  0.320    1.008    Y    Y      Y    6-31g**
  H114      1.597  1.150  0.320    1.008    Y    Y      Y    6-31g**
  H115      1.597  1.150  0.320    1.008    Y    Y      Y    6-31g**
  H116      1.597  1.150  0.320    1.008    Y    Y      Y    6-31g**
  H117      1.597  1.150  0.320    1.008    Y    Y      Y    6-31g**
  H118      1.597  1.150  0.320    1.008    Y    Y      Y    6-31g**
  H119      1.597  1.150  0.320    1.008    Y    Y      Y    6-31g**
  H120      1.597  1.150  0.320    1.008    Y    Y      Y    6-31g**
  H121      1.597  1.150  0.320    1.008    Y    Y      Y    6-31g**
  H122      1.597  1.150  0.320    1.008    Y    Y      Y    6-31g**
  H123      1.597  1.150  0.320    1.008    Y    Y      Y    6-31g**
  H124      1.597  1.150  0.320    1.008    Y    Y      Y    6-31g**
  H125      1.597  1.150  0.320    1.008    Y    Y      Y    6-31g**
  H126      1.597  1.150  0.320    1.008    Y    Y      Y    6-31g**
  H127      1.597  1.150  0.320    1.008    Y    Y      Y    6-31g**
  H128      1.597  1.150  0.320    1.008    Y    Y      Y    6-31g**
  H129      1.597  1.150  0.320    1.008    Y    Y      Y    6-31g**
  H130      1.597  1.150  0.320    1.008    Y    Y      Y    6-31g**
  H131      1.597  1.150  0.320    1.008    Y    Y      Y    6-31g**
  H132      1.597  1.150  0.320    1.008    Y    Y      Y    6-31g**
  H133      1.597  1.150  0.320    1.008    Y    Y      Y    6-31g**
  H134      1.597  1.150  0.320    1.008    Y    Y      Y    6-31g**
  H135      1.597  1.150  0.320    1.008    Y    Y      Y    6-31g**
  H136      1.597  1.150  0.320    1.008    Y    Y      Y    6-31g**
  H137      1.597  1.150  0.320    1.008    Y    Y      Y    6-31g**
  H138      1.597  1.150  0.320    1.008    Y    Y      Y    6-31g**
  H139      1.597  1.150  0.320    1.008    Y    Y      Y    6-31g**
  H140      1.597  1.150  0.320    1.008    Y    Y      Y    6-31g**
  S141      2.070  1.900  1.020   31.972    Y    Y      Y    6-31g**
  O142      1.702  1.600  0.730   15.995    Y    Y      Y    6-31g**
  C143      1.949  1.900  0.770   12.000    Y    Y      Y    6-31g**
  O144      1.702  1.600  0.730   15.995    Y    Y      Y    6-31g**
  F145      1.736  1.682  0.720   18.998    Y    Y      Y    6-31g**
  F146      1.736  1.682  0.720   18.998    Y    Y      Y    6-31g**
  F147      1.736  1.682  0.720   18.998    Y    Y      Y    6-31g**
  H148      1.597  1.150  0.320    1.008    Y    Y      Y    6-31g**
  
  Peak memory usage:    768 Mb
  
  end of program pre
   
 Time(pre)  user:        0.9  user+sys:        0.9  wallclock:        1.3
  
  start of program onee
  
  smallest eigenvalue of S:    2.310E-04
  number of canonical orbitals.....         1674
  Peak memory usage:    900 Mb
  
  end of program onee
   
 Time(onee)  user:       16.6  user+sys:       16.6  wallclock:       18.6
  
  start of program hfig
  
  initial wavefunction generated automatically from atomic wavefunctions
 
  Irreducible     Total no   No of occupied orbitals 
  representation  orbitals   Shell_1  Shell_2    ...
  No Symm         1674        340
  ------------------------
  Orbital occupation/shell    1.000
 
  Peak memory usage:    833 Mb
  
  end of program hfig
   
 Time(hfig)  user:       28.9  user+sys:       28.9  wallclock:       30.3
  
  start of program probe
  
  Peak memory usage:    826 Mb
  
  end of program probe
   
 Time(probe)  user:       20.0  user+sys:       20.0  wallclock:       20.8
  
  start of program grid
  
   grid     grid set  grid #  grid sym
  ------    --------  ------  --------
  coarse        0        0        1
  medium        2        1        1
  fine          0        0        1
  ultrafine     4        2        1
  charge       -1        3        1
  gradient      4        2        1
  density       0        0        1
  DFT-fine    -13        4        1
  DFT-med.    -13        4        1
  DFT-grad    -13        4        1
  DFT-der2      0        0        1
  DFT-cphf      0        0        1
  LMP2-enrg     4        2        1
  LMP2-grad     2        1        1
  DFT-cphf2     0        0        1
  PBF-dens      0        0        1
  plotting      0        0        1
  Rel-grad    -17        0        1
  
  number of gridpoints: 
     atom        C1       C2       C3       C4       C5       C6       C7
  grid # 1       97      102       94      102      100       96       93
  grid # 2      337      360      336      366      355      336      336
  grid # 3       31       24       39       49       14       46       28
  grid # 4    48124    48124    48124    48124    48124    48124    48124
   
  number of gridpoints: 
     atom        C8       C9      C10      C11      O12     Si13      C14
  grid # 1       94       95      100       99      111      473      101
  grid # 2      335      351      354      361      432      473      360
  grid # 3       48       15       10       16       32        7       23
  grid # 4    48124    48124    48124    48124    47716    38542    48124
   
  number of gridpoints: 
     atom       C15      C16      C17      C18      C19      C20     Si21
  grid # 1       97      101       96       94       97      101      474
  grid # 2      355      366      338      332      338      360      474
  grid # 3        8       36       29       18       46       10        7
  grid # 4    48124    48124    48124    48124    48124    48124    38542
   
  number of gridpoints: 
     atom       O22      C23      C24      P25      O26      N27      C28
  grid # 1      113       95       94      445      117      107      100
  grid # 2      440      338      338      445      444      395      360
  grid # 3       49       37       47        6       83       23       13
  grid # 4    47716    48124    48124    38640    47716    47928    48124
   
  number of gridpoints: 
     atom       C29      C30      C31      C32      C33      C34      C35
  grid # 1       99      101       99      101       99       92       94
  grid # 2      359      358      358      358      361      337      335
  grid # 3       11        7        7       12       11       27       23
  grid # 4    48124    48124    48124    48124    48124    48124    48124
   
  number of gridpoints: 
     atom       C36      C37      C38      C39      C40      C41      C42
  grid # 1       93       94       95       96       92       94       92
  grid # 2      331      335      333      336      334      328      335
  grid # 3       13       21       11       20       16        7       21
  grid # 4    48124    48124    48124    48124    48124    48124    48124
   
  number of gridpoints: 
     atom       C43      C44      C45      C46      C47      C48      C49
  grid # 1       96       93       95       94       94       93       93
  grid # 2      340      336      334      335      336      335      330
  grid # 3       29       17       19       46       47       40       25
  grid # 4    48124    48124    48124    48124    48124    48124    48124
   
  number of gridpoints: 
     atom       C50      C51      C52      C53      C54      C55      C56
  grid # 1       93       93       92       94       93       94       93
  grid # 2      335      335      332      331      332      334      330
  grid # 3       37       35       15       25       28       26       25
  grid # 4    48124    48124    48124    48124    48124    48124    48124
   
  number of gridpoints: 
     atom       C57      C58      C59      C60      C61      C62      C63
  grid # 1       93       93       94       94       93       93       93
  grid # 2      330      335      335      336      334      331      332
  grid # 3       17       39       46       42       26       27       26
  grid # 4    48124    48124    48124    48124    48124    48124    48124
   
  number of gridpoints: 
     atom       C64      C65      C66      C67      C68      C69      C70
  grid # 1       96       95      100       95       96       96       90
  grid # 2      330      332      360      328      330      330      313
  grid # 3       33       19       10       16       23       32        6
  grid # 4    48124    48124    48124    48124    48124    48124    48124
   
  number of gridpoints: 
     atom       N71      S72      O73      O74      C75      C76      C77
  grid # 1       96      436      118      120       98       96       96
  grid # 2      350      436      491      479      358      328      330
  grid # 3       11       11      223      121       29       33       30
  grid # 4    47928    48492    47716    47716    48124    48124    48124
   
  number of gridpoints: 
     atom       C78      C79      N80      N81      C82      C83      C84
  grid # 1       96       96      112       99       92       92       93
  grid # 2      329      337      418      345      331      328      330
  grid # 3       30       29       85        7        9       21       15
  grid # 4    48124    48124    47928    47928    48124    48124    48124
   
  number of gridpoints: 
     atom       C85      H86      H87      H88      H89      H90      H91
  grid # 1       90      111      118      118      111      118      112
  grid # 2      311      434      452      446      425      453      429
  grid # 3        6      227      416      360      175      424      205
  grid # 4    48124    48426    48426    48426    48426    48426    48426
   
  number of gridpoints: 
     atom       H92      H93      H94      H95      H96      H97      H98
  grid # 1      110      118      118      118      111      113      110
  grid # 2      425      443      449      450      434      433      422
  grid # 3      171      361      401      417      219      246      144
  grid # 4    48426    48426    48426    48426    48426    48426    48426
   
  number of gridpoints: 
     atom       H99     H100     H101     H102     H103     H104     H105
  grid # 1      113      112      108      107      111      112      111
  grid # 2      433      440      419      417      430      437      432
  grid # 3      247      255      123       91      218      259      219
  grid # 4    48426    48426    48426    48426    48426    48426    48426
   
  number of gridpoints: 
     atom      H106     H107     H108     H109     H110     H111     H112
  grid # 1      109      112      118      118      118      117      117
  grid # 2      425      432      452      453      452      445      452
  grid # 3      174      240      420      424      420      349      409
  grid # 4    48426    48426    48426    48426    48426    48426    48426
   
  number of gridpoints: 
     atom      H113     H114     H115     H116     H117     H118     H119
  grid # 1      118      117      114      113      112      112      117
  grid # 2      452      442      443      437      431      433      450
  grid # 3      418      323      317      276      208      228      372
  grid # 4    48426    48426    48426    48426    48426    48426    48426
   
  number of gridpoints: 
     atom      H120     H121     H122     H123     H124     H125     H126
  grid # 1      118      118      118      117      117      117      118
  grid # 2      452      453      453      451      452      444      450
  grid # 3      413      424      423      394      406      340      411
  grid # 4    48426    48426    48426    48426    48426    48426    48426
   
  number of gridpoints: 
     atom      H127     H128     H129     H130     H131     H132     H133
  grid # 1      112      107      111      116      103      111      117
  grid # 2      437      410      424      441      407      430      453
  grid # 3      261       94      177      320      110      206      408
  grid # 4    48426    48426    48426    48426    48426    48426    48426
   
  number of gridpoints: 
     atom      H134     H135     H136     H137     H138     H139     H140
  grid # 1      117      117       99      115      118      115      103
  grid # 2      451      452      393      443      459      454      412
  grid # 3      406      418       67      310      452      378       91
  grid # 4    48426    48426    48426    48426    48426    48426    48426
   
  number of gridpoints: 
     atom      S141     O142     C143     O144     F145     F146     F147
  grid # 1      442      118       90      119      509      517      533
  grid # 2      442      470      317      478      509      517      533
  grid # 3       10       71        7      116       67      120      251
  grid # 4    48492    47716    48124    47716    47062    47062    47062
   
  number of gridpoints: 
     atom      H148    total
  grid # 1      103    18377
  grid # 2      402    57836
  grid # 3       67    19411
  grid # 4    48426  7104526
   
  Peak memory usage:    795 Mb
  
  end of program grid
   
 Time(grid)  user:     1079.2  user+sys:     1079.2  wallclock:     1099.4
  
  start of program rwr
  
  Peak memory usage:    814 Mb
  
  end of program rwr
   
 Time(rwr)  user:       64.3  user+sys:       64.3  wallclock:       70.8
  
  start of program scf
  
 number of electrons..........        680
 number of alpha electrons....        340
 number of beta electrons.....        340
 number of orbitals, total....       1674
 number of doubly-occ'd orbs..        340
 number of open shell orbs....          0
 number of occupied orbitals..        340
 number of virtual orbitals...       1334
 number of hamiltonians.......          1
 number of shells.............          1
 SCF type: DFT=M06-2X
 Energy computed with NOPS off.
  
       i  u  d  i  g                   
       t  p  i  c  r                                 RMS    maximum
       e  d  i  u  i                       energy  density   DIIS  
       r  t  s  t  d       total energy    change  change    error 
  
etot    1  N  N  1  U   -5562.64879661920           4.7E-03  1.1E-01
etot    2  N  Y  1  U   -5513.84568838166 -4.9E+01  1.8E-02  2.4E-01
etot    3  N  Y  1  U   -5293.88568388242 -2.2E+02  1.7E-02  4.5E-01
etot    4  N  Y  1  U   -5571.56358425615  2.8E+02  2.5E-03  8.0E-02
etot    5  N  Y  1  U   -5572.96112263672  1.4E+00  1.3E-03  4.7E-02
etot    6  N  Y  1  U   -5575.27405572573  2.3E+00  4.2E-04  1.7E-02
etot    7  N  Y  1  U   -5575.53305199559  2.6E-01  1.6E-04  7.6E-03
etot    8  N  Y  1  U   -5575.56165760026  2.9E-02  6.8E-05  3.1E-03
etot    9  N  Y  1  U   -5575.56914903623  7.5E-03  2.7E-05  8.7E-04
etot   10  N  Y  1  U   -5575.57021270467  1.1E-03  1.0E-05  3.5E-04
etot   11  N  Y  1  U   -5575.57034316372  1.3E-04  3.9E-06  1.6E-04
etot   12  N  N  1  U   -5575.57036606382  2.3E-05  0.0E+00  0.0E+00
  
  
 Energy components, in hartrees:
   (A)  Nuclear repulsion............   20887.04271521147
   (E)  Total one-electron terms.....  -49304.53380017389
   (F)    Electron-nuclear...........  -54840.65022288112
   (H)    Kinetic....................    5536.11642270723
   (I)  Total two-electron terms.....   22841.92071889860
   (J)    Coulomb....................   23493.23721220431
   (K)    Exchange+Correlation.......    -651.31649330571
   (L)  Electronic energy............  -26462.61308127530  (E+I)
   (M)  -V/T.........................       2.00712664625  (-(A+F+I)/H)
   (N)  Total energy.................   -5575.57036606382  (A+L)
   (O)  Gas phase energy.............   -5575.57036606382
  
 SCFE: SCF energy: DFT(m06-2x)     -5575.57036606382 hartrees   iterations:  12
  
 
 HOMO energy:    -0.24511
 LUMO energy:    -0.06976
 
  Orbital energies (hartrees): 
   -90.15131   -90.13270   -78.21210   -67.00794   -66.99860   -25.26905
   -25.26857   -25.26516   -19.69313   -19.68959   -19.63182   -19.63081
   -19.61314   -19.60622   -19.60489   -14.85038   -14.77997   -14.77840
   -14.73408   -10.78407   -10.66509   -10.62957   -10.62854   -10.62165
   -10.61923   -10.61812   -10.61505   -10.60700   -10.59828   -10.57876
   -10.57257   -10.57243   -10.57045   -10.56951   -10.56557   -10.56163
   -10.56161   -10.56112   -10.56061   -10.55961   -10.55934   -10.55774
   -10.55676   -10.55588   -10.55572   -10.55517   -10.55316   -10.55303
   -10.55266   -10.55139   -10.55138   -10.55067   -10.54944   -10.54923
   -10.54887   -10.54841   -10.54784   -10.54726   -10.54686   -10.54670
   -10.54649   -10.54640   -10.54617   -10.54615   -10.54568   -10.54535
   -10.54517   -10.54463   -10.54358   -10.54276   -10.54266   -10.54243
   -10.54049   -10.54042   -10.53965   -10.53948   -10.53850   -10.53791
   -10.53748   -10.53594   -10.53527   -10.53309   -10.53123   -10.52840
   -10.52699   -10.52674   -10.52526   -10.52477   -10.52406   -10.52306
   -10.52248   -10.51207    -8.46108    -8.44145    -6.99126    -6.38323
    -6.38268    -6.38156    -6.36337    -6.36287    -6.36273    -5.53944
    -5.52989    -5.10955    -5.10891    -5.10714    -3.84928    -3.84894
    -3.84860    -3.83960    -3.83953    -3.83907    -1.43502    -1.34466
    -1.34219    -1.22590    -1.22474    -1.19771    -1.18448    -1.14218
    -1.11187    -1.09469    -1.08478    -1.06924    -1.03108    -0.98241
    -0.97069    -0.96388    -0.96136    -0.94785    -0.94213    -0.94088
    -0.93489    -0.93428    -0.93225    -0.91959    -0.91945    -0.91303
    -0.90463    -0.90062    -0.88476    -0.87691    -0.85675    -0.84953
    -0.84588    -0.84472    -0.83796    -0.83770    -0.83502    -0.83276
    -0.83132    -0.82803    -0.82659    -0.82537    -0.82437    -0.82241
    -0.82113    -0.81892    -0.81052    -0.80815    -0.80478    -0.79493
    -0.79069    -0.75444    -0.75076    -0.72607    -0.72035    -0.71651
    -0.70674    -0.70152    -0.70075    -0.69496    -0.69216    -0.68926
    -0.68509    -0.68449    -0.67976    -0.67882    -0.67400    -0.67340
    -0.67061    -0.66699    -0.66676    -0.66557    -0.66371    -0.66040
    -0.65941    -0.65746    -0.65736    -0.65345    -0.64938    -0.64572
    -0.64256    -0.63524    -0.62568    -0.62175    -0.60933    -0.60637
    -0.59791    -0.59667    -0.58871    -0.58360    -0.57903    -0.57790
    -0.57636    -0.57522    -0.57335    -0.56872    -0.56737    -0.56351
    -0.56067    -0.55913    -0.55528    -0.55300    -0.54820    -0.54545
    -0.54011    -0.53768    -0.53614    -0.53538    -0.53210    -0.52755
    -0.52507    -0.52336    -0.52023    -0.51907    -0.51681    -0.51447
    -0.51332    -0.51074    -0.50890    -0.50657    -0.50472    -0.50309
    -0.50278    -0.50088    -0.50077    -0.49932    -0.49822    -0.49677
    -0.49665    -0.49390    -0.49363    -0.49264    -0.49110    -0.49019
    -0.48984    -0.48801    -0.48510    -0.48317    -0.48219    -0.48179
    -0.47990    -0.47981    -0.47889    -0.47744    -0.47733    -0.47315
    -0.47263    -0.46962    -0.46875    -0.46268    -0.46114    -0.46069
    -0.45533    -0.44964    -0.44837    -0.44744    -0.44480    -0.44395
    -0.44299    -0.43986    -0.43449    -0.43127    -0.42807    -0.42507
    -0.42307    -0.42113    -0.41863    -0.41728    -0.41487    -0.41188
    -0.41144    -0.40912    -0.40515    -0.40212    -0.39948    -0.39708
    -0.39589    -0.39308    -0.39242    -0.39127    -0.39002    -0.38907
    -0.38812    -0.38657    -0.38244    -0.38196    -0.37811    -0.37649
    -0.37316    -0.37148    -0.37008    -0.36954    -0.36774    -0.36450
    -0.35411    -0.35153    -0.35051    -0.34822    -0.34402    -0.33998
    -0.33815    -0.33574    -0.33482    -0.33299    -0.33131    -0.32775
    -0.32615    -0.32375    -0.31578    -0.31246    -0.30852    -0.30728
    -0.30438    -0.30251    -0.30077    -0.30038    -0.29912    -0.29533
    -0.29221    -0.28805    -0.28557    -0.28219    -0.28211    -0.27967
    -0.27370    -0.27172    -0.26523    -0.24511    -0.06976    -0.01154
    -0.00688     0.00175     0.01204     0.01426     0.01675     0.01784
     0.02151     0.02298
 
  Peak memory usage:   1028 Mb
  
  end of program scf
   
 Time(scf)  user:    27655.0  user+sys:    27655.0  wallclock:    28011.9
  
  start of program ch
  
  gridpoints used for charge fit        16771
    out of a possible maximum of        19411
  
   Electrostatic potential fitting constrained to reproduce
     total charge:                yes
     dipole moment:               no 
     traceless quadrupole moment: no 
     traceless octapole moment:   no 
  
  Atomic charges from electrostatic potential: 
   
 Atom       C1           C2           C3           C4           C5      
 Charge   -0.03258     -0.08698     -0.21076      0.18123      0.11504
   
 Atom       C6           C7           C8           C9           C10     
 Charge   -0.23369     -0.25827     -0.08285      0.14231     -0.38232
   
 Atom       C11          O12          Si13         C14          C15     
 Charge    0.00338     -0.30666     -0.31943      0.16461      0.45122
   
 Atom       C16          C17          C18          C19          C20     
 Charge    0.22566     -0.14499     -0.35315     -0.26910      0.03018
   
 Atom       Si21         O22          C23          C24          P25     
 Charge   -0.39313     -0.38563     -0.18088     -0.08808      1.01921
   
 Atom       O26          N27          C28          C29          C30     
 Charge   -0.66940     -0.63787      0.18768      0.21950      0.38094
   
 Atom       C31          C32          C33          C34          C35     
 Charge    0.48168      0.21606      0.13337     -0.14654     -0.22013
   
 Atom       C36          C37          C38          C39          C40     
 Charge   -0.15427     -0.20571     -0.24736     -0.28720     -0.31622
   
 Atom       C41          C42          C43          C44          C45     
 Charge   -0.28543     -0.15616     -0.18367     -0.07379     -0.19402
   
 Atom       C46          C47          C48          C49          C50     
 Charge   -0.15129     -0.14787     -0.09539     -0.18492     -0.08218
   
 Atom       C51          C52          C53          C54          C55     
 Charge   -0.15916     -0.09550     -0.18032     -0.09872     -0.18947
   
 Atom       C56          C57          C58          C59          C60     
 Charge   -0.08481     -0.11064     -0.15876     -0.14382     -0.12747
   
 Atom       C61          C62          C63          C64          C65     
 Charge   -0.16330     -0.14153     -0.10260     -0.09294     -0.33279
   
 Atom       C66          C67          C68          C69          C70     
 Charge    0.41043     -0.24815     -0.05269     -0.18789     -0.20336
   
 Atom       N71          S72          O73          O74          C75     
 Charge   -0.46820      0.65176     -0.45779     -0.43718      0.53683
   
 Atom       C76          C77          C78          C79          N80     
 Charge   -0.38540      0.16866     -0.43279      0.33328     -0.56074
   
 Atom       N81          C82          C83          C84          C85     
 Charge    0.00797      0.02408     -0.20426     -0.27806      0.20134
   
 Atom       H86          H87          H88          H89          H90     
 Charge    0.08863      0.15241      0.14135      0.16091      0.12779
   
 Atom       H91          H92          H93          H94          H95     
 Charge    0.12038      0.18344      0.15573      0.14378      0.12576
   
 Atom       H96          H97          H98          H99          H100    
 Charge    0.10272      0.14034      0.15429      0.13553      0.13578
   
 Atom       H101         H102         H103         H104         H105    
 Charge    0.17087      0.18472      0.17266      0.12934      0.09696
   
 Atom       H106         H107         H108         H109         H110    
 Charge    0.09926      0.13197      0.13590      0.13390      0.12512
   
 Atom       H111         H112         H113         H114         H115    
 Charge    0.14171      0.11949      0.14051      0.10661      0.12272
   
 Atom       H116         H117         H118         H119         H120    
 Charge    0.14242      0.14164      0.09524      0.12529      0.13395
   
 Atom       H121         H122         H123         H124         H125    
 Charge    0.13268      0.13414      0.13019      0.12870      0.12170
   
 Atom       H126         H127         H128         H129         H130    
 Charge    0.14030      0.16512      0.15565      0.08875      0.14122
   
 Atom       H131         H132         H133         H134         H135    
 Charge    0.12488      0.19012      0.10840      0.18929      0.06381
   
 Atom       H136         H137         H138         H139         H140    
 Charge    0.24447      0.18762      0.20073      0.23173      0.15224
   
 Atom       S141         O142         C143         O144         F145    
 Charge    0.67851     -0.40899      0.48700     -0.45241     -0.11525
   
 Atom       F146         F147         H148    
 Charge   -0.15781     -0.15957      0.35747
  
  sum of atomic charges:     0.000000
   
 RMS Error   9.72E-04 hartrees
 
  Peak memory usage:    816 Mb
  
  end of program ch
   
 Time(ch)  user:       17.0  user+sys:       17.0  wallclock:       20.8
  
  start of program post
  
  Writing input files for PBF
  Peak memory usage:    759 Mb
  
  end of program post
   
 Time(post)  user:        0.7  user+sys:        0.7  wallclock:        0.9

  start of program pbf

Pbf Version 4.10

Molecular surface area:      838.62495   [A2]
Reaction field energy:       -20.76714   [kT]
  Peak memory usage: 721 Mb

  end of program pbf

 Time(pbf)  user:       22.0  user+sys:       22.1  wallclock:       22.2
  
  start of program solv
  
   number of surface charges from PBF   13408
   sum of surface charges     -0.00055
   
  nuclear repulsion energy.......   20887.042715211 hartrees
  Peak memory usage:    894 Mb
  
  end of program solv
   
 Time(solv)  user:       32.3  user+sys:       32.3  wallclock:       32.4
  
  start of program scf
  
 Energy computed with NOPS off.
  
       i  u  d  i  g                   
       t  p  i  c  r                                 RMS    maximum
       e  d  i  u  i                       energy  density   DIIS  
       r  t  s  t  d       total energy    change  change    error 
  
etot    1  N  N  1  U   -5575.61337722985           6.0E-05  8.9E-04
etot    2  N  Y  1  U   -5575.61439418819  1.0E-03  2.0E-05  7.5E-04
etot    3  N  Y  1  U   -5575.61473590343  3.4E-04  5.7E-06  3.5E-04
etot    4  N  Y  1  U   -5575.61479947174  6.4E-05  2.2E-06  8.8E-05
etot    5  N  N  1  U   -5575.61480609524  6.6E-06  0.0E+00  0.0E+00
  
  
 Energy components, in hartrees:
   (A)  Total zero-electron terms....   20890.19905034965
   (B)    Nuclear-nuclear............   20887.04271521147
   (C)    Nuclear-solvent............       3.15633513818
   (E)  Total one-electron terms.....  -49309.45290662108
   (F)    Electron-nuclear...........  -54842.44729598180
   (G)    Electron-solvent...........      -3.20215538976
   (H)    Kinetic....................    5536.19654475048
   (I)  Total two-electron terms.....   22843.63905017619
   (J)    Coulomb....................   23494.98068937883
   (K)    Exchange+Correlation.......    -651.34163920264
   (L)  Electronic energy............  -26465.81385644489  (E+I)
   (N)  Total quantum mech. energy...   -5575.61480609524  (A+L)
   (O)  Gas phase energy.............   -5575.57036606382
   (P)  Solution phase energy........   -5575.59189596945  (Q+R+S)
   (Q)    Total solute energy........   -5575.56898584366  (N-C-G)
   (R)    Total solvent energy.......      -0.02291012579  (C/2+G/2)
   (S)    Solute cavity energy.......       0.00000000000
   (U)  Reorganization energy........       0.00138022016  (Q-O)
   (V)  Solvation energy.............      -0.02152990563  (P-O)
  
 SCFE:  Solution phase energy: DFT(m06-2x)      -5575.59189596945 hartrees
        SCF iterations:   5
  
 
 HOMO energy:    -0.24903
 LUMO energy:    -0.06187
 
  Orbital energies (hartrees): 
   -90.15676   -90.13823   -78.21476   -67.01039   -67.00261   -25.27576
   -25.27554   -25.27294   -19.69615   -19.69273   -19.63782   -19.63604
   -19.61386   -19.61237   -19.60945   -14.84339   -14.78241   -14.78040
   -14.73836   -10.79098   -10.65585   -10.62698   -10.62483   -10.62426
   -10.62171   -10.61666   -10.60943   -10.59763   -10.59590   -10.57665
   -10.57224   -10.57142   -10.57031   -10.57029   -10.56836   -10.56540
   -10.56443   -10.56404   -10.56162   -10.55932   -10.55689   -10.55564
   -10.55540   -10.55536   -10.55504   -10.55490   -10.55479   -10.55471
   -10.55372   -10.55337   -10.55282   -10.55191   -10.55155   -10.55123
   -10.55121   -10.55067   -10.54942   -10.54923   -10.54916   -10.54856
   -10.54825   -10.54804   -10.54784   -10.54782   -10.54775   -10.54686
   -10.54680   -10.54659   -10.54648   -10.54647   -10.54589   -10.54536
   -10.54408   -10.54403   -10.54317   -10.54291   -10.54200   -10.54158
   -10.54086   -10.53930   -10.53561   -10.53557   -10.53549   -10.53154
   -10.53094   -10.53088   -10.52982   -10.52817   -10.52811   -10.52770
   -10.52724   -10.51687    -8.46647    -8.44702    -6.99394    -6.38859
    -6.38816    -6.38690    -6.36892    -6.36846    -6.36833    -5.54187
    -5.53390    -5.11223    -5.11160    -5.10981    -3.85170    -3.85139
    -3.85103    -3.84361    -3.84354    -3.84308    -1.44237    -1.35183
    -1.34980    -1.23067    -1.22893    -1.20358    -1.18758    -1.13539
    -1.11826    -1.09548    -1.09088    -1.07057    -1.03252    -0.98573
    -0.97463    -0.96494    -0.96283    -0.94816    -0.94421    -0.94279
    -0.93838    -0.93586    -0.92657    -0.92419    -0.92228    -0.91221
    -0.90804    -0.89723    -0.88811    -0.87636    -0.85339    -0.85247
    -0.84603    -0.84435    -0.84091    -0.83786    -0.83702    -0.83464
    -0.83353    -0.83084    -0.82929    -0.82837    -0.82757    -0.82551
    -0.82416    -0.82214    -0.81518    -0.81265    -0.81123    -0.79831
    -0.78956    -0.75631    -0.75207    -0.72549    -0.72116    -0.71462
    -0.70468    -0.70331    -0.70098    -0.69765    -0.68824    -0.68724
    -0.68519    -0.68444    -0.68126    -0.67928    -0.67621    -0.67524
    -0.67339    -0.67081    -0.66983    -0.66801    -0.66675    -0.66557
    -0.66495    -0.66055    -0.65655    -0.65432    -0.65342    -0.64922
    -0.64648    -0.63863    -0.62690    -0.62406    -0.60862    -0.60785
    -0.60055    -0.59915    -0.59080    -0.58355    -0.58092    -0.57930
    -0.57619    -0.57475    -0.57408    -0.57006    -0.56832    -0.56657
    -0.56521    -0.55904    -0.55770    -0.55245    -0.54819    -0.54668
    -0.54429    -0.54211    -0.53838    -0.53676    -0.53475    -0.52753
    -0.52584    -0.52378    -0.52092    -0.52055    -0.51940    -0.51586
    -0.51519    -0.51302    -0.51142    -0.50848    -0.50766    -0.50686
    -0.50397    -0.50332    -0.50322    -0.50168    -0.50101    -0.49918
    -0.49684    -0.49595    -0.49588    -0.49460    -0.49329    -0.49263
    -0.48922    -0.48747    -0.48589    -0.48436    -0.48389    -0.48372
    -0.48264    -0.48201    -0.48160    -0.47995    -0.47769    -0.47649
    -0.47536    -0.47191    -0.46920    -0.46499    -0.46449    -0.46000
    -0.45551    -0.45076    -0.44814    -0.44757    -0.44715    -0.44560
    -0.44511    -0.44273    -0.43522    -0.43374    -0.42945    -0.42728
    -0.42571    -0.42347    -0.42193    -0.42017    -0.41861    -0.41610
    -0.41531    -0.41000    -0.40798    -0.40313    -0.40110    -0.39969
    -0.39793    -0.39574    -0.39418    -0.39332    -0.39310    -0.39185
    -0.39003    -0.38860    -0.38612    -0.38483    -0.38169    -0.38015
    -0.37592    -0.37440    -0.37372    -0.37259    -0.36967    -0.36192
    -0.35878    -0.35321    -0.35262    -0.35128    -0.34615    -0.34331
    -0.34192    -0.33810    -0.33777    -0.33629    -0.33405    -0.33145
    -0.33012    -0.32768    -0.32029    -0.31278    -0.30856    -0.30721
    -0.30645    -0.30400    -0.30335    -0.30217    -0.30118    -0.29742
    -0.29663    -0.29210    -0.28785    -0.28579    -0.28574    -0.28407
    -0.27709    -0.27677    -0.26942    -0.24903    -0.06187    -0.01523
    -0.00755    -0.00110     0.01101     0.01222     0.01632     0.01684
     0.01884     0.02168
 
  Peak memory usage:   1029 Mb
  
  end of program scf
   
 Time(scf)  user:     9085.3  user+sys:     9085.3  wallclock:     9203.8
  
  start of program sole
  
    SCRF                   solvation energy
  iteration          Hartrees            kcal/mol
     0               0.0000000            0.0000
     1              -0.0215299          -13.5102
  
  solvation energy not yet converged... 
  
  Peak memory usage:    813 Mb
  
  end of program sole
   
 Time(sole)  user:        0.1  user+sys:        0.1  wallclock:        0.1
  
  start of program ch
  
  gridpoints used for charge fit        16771
    out of a possible maximum of        16771
  
   Electrostatic potential fitting constrained to reproduce
     total charge:                yes
     dipole moment:               no 
     traceless quadrupole moment: no 
     traceless octapole moment:   no 
  
  Atomic charges from electrostatic potential: 
   
 Atom       C1           C2           C3           C4           C5      
 Charge   -0.03421     -0.08253     -0.21992      0.18185      0.10943
   
 Atom       C6           C7           C8           C9           C10     
 Charge   -0.24252     -0.27046     -0.08706      0.13718     -0.38398
   
 Atom       C11          O12          Si13         C14          C15     
 Charge    0.02250     -0.30180     -0.35141      0.16754      0.45427
   
 Atom       C16          C17          C18          C19          C20     
 Charge    0.22229     -0.14882     -0.35842     -0.27720      0.04024
   
 Atom       Si21         O22          C23          C24          P25     
 Charge   -0.41925     -0.37782     -0.18655     -0.09508      1.00728
   
 Atom       O26          N27          C28          C29          C30     
 Charge   -0.66175     -0.62226      0.19540      0.22968      0.38944
   
 Atom       C31          C32          C33          C34          C35     
 Charge    0.49887      0.22134      0.13515     -0.14770     -0.22902
   
 Atom       C36          C37          C38          C39          C40     
 Charge   -0.15817     -0.21224     -0.24062     -0.29077     -0.32937
   
 Atom       C41          C42          C43          C44          C45     
 Charge   -0.28064     -0.15683     -0.18328     -0.06948     -0.20210
   
 Atom       C46          C47          C48          C49          C50     
 Charge   -0.16126     -0.15572     -0.10028     -0.19270     -0.08809
   
 Atom       C51          C52          C53          C54          C55     
 Charge   -0.16765     -0.10711     -0.18536     -0.10907     -0.19682
   
 Atom       C56          C57          C58          C59          C60     
 Charge   -0.08894     -0.12655     -0.16847     -0.15052     -0.13919
   
 Atom       C61          C62          C63          C64          C65     
 Charge   -0.17288     -0.15174     -0.10786     -0.10931     -0.32729
   
 Atom       C66          C67          C68          C69          C70     
 Charge    0.42566     -0.24066     -0.07354     -0.18646     -0.24913
   
 Atom       N71          S72          O73          O74          C75     
 Charge   -0.43489      0.65816     -0.48022     -0.45409      0.53822
   
 Atom       C76          C77          C78          C79          N80     
 Charge   -0.39071      0.17413     -0.44039      0.34297     -0.58413
   
 Atom       N81          C82          C83          C84          C85     
 Charge    0.01182      0.02957     -0.20273     -0.28828      0.20815
   
 Atom       H86          H87          H88          H89          H90     
 Charge    0.09063      0.16074      0.14838      0.16885      0.13594
   
 Atom       H91          H92          H93          H94          H95     
 Charge    0.12185      0.18696      0.16254      0.15119      0.13369
   
 Atom       H96          H97          H98          H99          H100    
 Charge    0.10274      0.14476      0.15604      0.13999      0.13867
   
 Atom       H101         H102         H103         H104         H105    
 Charge    0.16857      0.19339      0.17145      0.13276      0.09528
   
 Atom       H106         H107         H108         H109         H110    
 Charge    0.09749      0.13494      0.14455      0.14204      0.13241
   
 Atom       H111         H112         H113         H114         H115    
 Charge    0.14597      0.12624      0.14792      0.11817      0.13071
   
 Atom       H116         H117         H118         H119         H120    
 Charge    0.14587      0.14398      0.09970      0.13280      0.14196
   
 Atom       H121         H122         H123         H124         H125    
 Charge    0.14067      0.14271      0.13914      0.13834      0.12980
   
 Atom       H126         H127         H128         H129         H130    
 Charge    0.14960      0.16776      0.15111      0.09995      0.14605
   
 Atom       H131         H132         H133         H134         H135    
 Charge    0.13614      0.18842      0.11745      0.20002      0.07143
   
 Atom       H136         H137         H138         H139         H140    
 Charge    0.23635      0.19887      0.21238      0.24404      0.15422
   
 Atom       S141         O142         C143         O144         F145    
 Charge    0.67230     -0.40623      0.48869     -0.46881     -0.11218
   
 Atom       F146         F147         H148    
 Charge   -0.15820     -0.16399      0.34695
  
  sum of atomic charges:     0.000000
   
 RMS Error   9.80E-04 hartrees
 
  Peak memory usage:    816 Mb
  
  end of program ch
   
 Time(ch)  user:       16.9  user+sys:       16.9  wallclock:       20.2
  
  start of program post
  
  Writing input files for PBF
  Peak memory usage:    759 Mb
  
  end of program post
   
 Time(post)  user:        0.6  user+sys:        0.6  wallclock:        0.8

  start of program pbf

Pbf Version 4.10

Molecular surface area:      838.62495   [A2]
Reaction field energy:       -24.01563   [kT]
  Peak memory usage: 721 Mb

  end of program pbf

 Time(pbf)  user:       22.6  user+sys:       22.7  wallclock:       22.9
  
  start of program solv
  
   number of surface charges from PBF   13408
   sum of surface charges     -0.00058
   
  nuclear repulsion energy.......   20887.042715211 hartrees
  Peak memory usage:    894 Mb
  
  end of program solv
   
 Time(solv)  user:       32.3  user+sys:       32.3  wallclock:       32.4
  
  start of program scf
  
 Energy computed with NOPS off.
  
       i  u  d  i  g                   
       t  p  i  c  r                                 RMS    maximum
       e  d  i  u  i                       energy  density   DIIS  
       r  t  s  t  d       total energy    change  change    error 
  
etot    1  N  N  1  U   -5575.61819131536           7.1E-06  1.2E-04
etot    2  N  N  1  U   -5575.61819643923  5.1E-06  0.0E+00  0.0E+00
  
  
 Energy components, in hartrees:
   (A)  Total zero-electron terms....   20890.53303093472
   (B)    Nuclear-nuclear............   20887.04271521147
   (C)    Nuclear-solvent............       3.49031572325
   (E)  Total one-electron terms.....  -49310.18003045014
   (F)    Electron-nuclear...........  -54842.84546348250
   (G)    Electron-solvent...........      -3.53994228047
   (H)    Kinetic....................    5536.20537531283
   (I)  Total two-electron terms.....   22844.02880307620
   (J)    Coulomb....................   23495.37229898400
   (K)    Exchange+Correlation.......    -651.34349590780
   (L)  Electronic energy............  -26466.15122737395  (E+I)
   (N)  Total quantum mech. energy...   -5575.61819643923  (A+L)
   (O)  Gas phase energy.............   -5575.57036606382
   (P)  Solution phase energy........   -5575.59338316062  (Q+R+S)
   (Q)    Total solute energy........   -5575.56856988201  (N-C-G)
   (R)    Total solvent energy.......      -0.02481327861  (C/2+G/2)
   (S)    Solute cavity energy.......       0.00000000000
   (U)  Reorganization energy........       0.00179618182  (Q-O)
   (V)  Solvation energy.............      -0.02301709679  (P-O)
  
 SCFE:  Solution phase energy: DFT(m06-2x)      -5575.59338316062 hartrees
        SCF iterations:   2
  
 
 HOMO energy:    -0.30294
 LUMO energy:    -0.06097
 
  Orbital energies (hartrees): 
   -45.91182   -45.44054   -44.13728   -41.41487   -39.01769   -38.15699
   -36.80190   -36.39798   -31.13278   -29.56003   -27.91940   -27.25819
   -25.66238   -21.71138   -18.79407   -18.59419   -18.41160   -17.44428
   -16.88947   -16.83106   -16.77405   -15.76794   -14.89339   -14.66424
   -13.74554   -13.67668   -13.49980   -13.14646   -12.80545   -12.70572
   -12.67524   -12.36210   -11.97712   -11.77504   -11.70745   -11.69797
   -11.69056   -11.68151   -11.67733   -11.66000   -11.61168   -11.45316
   -11.36504   -11.33406   -11.24879   -11.22636   -11.19272   -11.13960
   -11.11437   -11.10044   -11.07659   -11.01250   -10.96149   -10.96107
   -10.93445   -10.92948   -10.88368   -10.87938   -10.86432   -10.82806
   -10.80757   -10.74345   -10.74156   -10.73509   -10.72357   -10.71685
   -10.71590   -10.70856   -10.69285   -10.69092   -10.68973   -10.66347
   -10.65168   -10.64392   -10.59968   -10.58653   -10.57666   -10.56604
   -10.56388   -10.55198   -10.54888   -10.53628   -10.53265   -10.51882
   -10.51515   -10.49783   -10.48270   -10.47957   -10.47435   -10.46835
   -10.43330   -10.42354   -10.14241   -10.00801    -8.53584    -8.50991
    -8.04110    -7.15318    -6.98617    -6.67470    -6.60646    -6.57160
    -6.56240    -6.55798    -5.20446    -5.15796    -4.41944    -3.98782
    -3.94392    -3.89390    -3.89265    -3.88149    -1.42311    -1.30816
    -1.29156    -1.18503    -1.09938    -1.07825    -1.04434    -1.03337
    -1.01157    -1.00069    -0.98887    -0.98141    -0.96593    -0.95491
    -0.95031    -0.94840    -0.94138    -0.93745    -0.93636    -0.93262
    -0.91379    -0.90738    -0.89410    -0.89260    -0.87268    -0.86830
    -0.85669    -0.85323    -0.85273    -0.85269    -0.85117    -0.84121
    -0.84116    -0.83307    -0.82947    -0.82802    -0.82205    -0.80899
    -0.80431    -0.79908    -0.79707    -0.79586    -0.78990    -0.78417
    -0.78254    -0.77820    -0.77799    -0.76032    -0.75427    -0.73185
    -0.72082    -0.71671    -0.71638    -0.71606    -0.71206    -0.70789
    -0.70745    -0.70549    -0.69797    -0.69552    -0.69382    -0.69050
    -0.68738    -0.68565    -0.67654    -0.67565    -0.66764    -0.66326
    -0.65781    -0.65678    -0.65380    -0.65252    -0.65134    -0.64802
    -0.64613    -0.64305    -0.64248    -0.64102    -0.63789    -0.63586
    -0.63554    -0.63496    -0.63095    -0.62082    -0.61962    -0.61909
    -0.61596    -0.61073    -0.60337    -0.59950    -0.59579    -0.59430
    -0.58863    -0.58315    -0.57731    -0.57292    -0.57108    -0.57006
    -0.56915    -0.56893    -0.56631    -0.55724    -0.55691    -0.55398
    -0.54875    -0.54614    -0.54248    -0.54183    -0.54039    -0.53579
    -0.53480    -0.53379    -0.52902    -0.52830    -0.52606    -0.52474
    -0.52278    -0.52216    -0.51855    -0.51828    -0.51763    -0.51686
    -0.51669    -0.51664    -0.51548    -0.51446    -0.51423    -0.51380
    -0.51167    -0.51125    -0.51119    -0.51080    -0.50997    -0.50621
    -0.50586    -0.50359    -0.50202    -0.50193    -0.50007    -0.49923
    -0.49902    -0.49703    -0.49586    -0.49095    -0.49039    -0.48927
    -0.48899    -0.48891    -0.48685    -0.48603    -0.48521    -0.48432
    -0.48386    -0.48297    -0.48162    -0.48112    -0.47931    -0.47658
    -0.47619    -0.47512    -0.47268    -0.47161    -0.47055    -0.46789
    -0.46634    -0.46289    -0.46105    -0.45964    -0.45847    -0.45607
    -0.45327    -0.45275    -0.45069    -0.45002    -0.44869    -0.44709
    -0.44212    -0.44188    -0.44004    -0.43714    -0.43552    -0.43178
    -0.43119    -0.43088    -0.42885    -0.42239    -0.42186    -0.41886
    -0.41771    -0.41561    -0.41511    -0.41412    -0.41248    -0.41035
    -0.41002    -0.40211    -0.40190    -0.40082    -0.40048    -0.39863
    -0.39802    -0.39290    -0.39188    -0.39131    -0.38273    -0.38136
    -0.38073    -0.37394    -0.37313    -0.35853    -0.35519    -0.34970
    -0.34886    -0.34846    -0.34349    -0.33888    -0.33370    -0.33274
    -0.32637    -0.32499    -0.32306    -0.32134    -0.31859    -0.31038
    -0.31012    -0.30859    -0.30328    -0.30294    -0.06097    -0.01523
    -0.00744    -0.00114     0.01102     0.01227     0.01643     0.01697
     0.01896     0.02177
 
  Peak memory usage:   1029 Mb
  
  end of program scf
   
 Time(scf)  user:     2292.9  user+sys:     2292.9  wallclock:     2325.7
  
  start of program sole
  
    SCRF                   solvation energy
  iteration          Hartrees            kcal/mol
     0               0.0000000            0.0000
     1              -0.0215299          -13.5102
     2              -0.0230171          -14.4434
  
  solvation energy not yet converged... 
  
  Peak memory usage:    813 Mb
  
  end of program sole
   
 Time(sole)  user:        0.1  user+sys:        0.1  wallclock:        0.1
  
  start of program ch
  
  gridpoints used for charge fit        16771
    out of a possible maximum of        16771
  
   Electrostatic potential fitting constrained to reproduce
     total charge:                yes
     dipole moment:               no 
     traceless quadrupole moment: no 
     traceless octapole moment:   no 
  
  Atomic charges from electrostatic potential: 
   
 Atom       C1           C2           C3           C4           C5      
 Charge   -0.03539     -0.08162     -0.21974      0.18226      0.10874
   
 Atom       C6           C7           C8           C9           C10     
 Charge   -0.24288     -0.27064     -0.08651      0.13604     -0.38450
   
 Atom       C11          O12          Si13         C14          C15     
 Charge    0.02356     -0.30188     -0.35474      0.16722      0.45503
   
 Atom       C16          C17          C18          C19          C20     
 Charge    0.22185     -0.14948     -0.35826     -0.27817      0.03963
   
 Atom       Si21         O22          C23          C24          P25     
 Charge   -0.41987     -0.37624     -0.18580     -0.09454      1.00437
   
 Atom       O26          N27          C28          C29          C30     
 Charge   -0.65966     -0.61996      0.19581      0.22817      0.38782
   
 Atom       C31          C32          C33          C34          C35     
 Charge    0.49783      0.22000      0.13471     -0.14751     -0.23057
   
 Atom       C36          C37          C38          C39          C40     
 Charge   -0.15695     -0.21271     -0.23783     -0.29153     -0.32885
   
 Atom       C41          C42          C43          C44          C45     
 Charge   -0.28022     -0.15586     -0.18416     -0.06925     -0.20389
   
 Atom       C46          C47          C48          C49          C50     
 Charge   -0.16142     -0.15573     -0.10000     -0.19292     -0.08797
   
 Atom       C51          C52          C53          C54          C55     
 Charge   -0.16737     -0.10597     -0.18528     -0.11157     -0.19688
   
 Atom       C56          C57          C58          C59          C60     
 Charge   -0.08828     -0.12784     -0.16863     -0.15015     -0.13933
   
 Atom       C61          C62          C63          C64          C65     
 Charge   -0.17300     -0.15171     -0.10751     -0.11093     -0.32504
   
 Atom       C66          C67          C68          C69          C70     
 Charge    0.42477     -0.23922     -0.07455     -0.18458     -0.25562
   
 Atom       N71          S72          O73          O74          C75     
 Charge   -0.42779      0.65463     -0.48141     -0.45445      0.53616
   
 Atom       C76          C77          C78          C79          N80     
 Charge   -0.39234      0.17585     -0.43919      0.34418     -0.58670
   
 Atom       N81          C82          C83          C84          C85     
 Charge    0.01128      0.03210     -0.19903     -0.29038      0.20764
   
 Atom       H86          H87          H88          H89          H90     
 Charge    0.09100      0.16123      0.14878      0.16993      0.13653
   
 Atom       H91          H92          H93          H94          H95     
 Charge    0.12168      0.18663      0.16294      0.15161      0.13420
   
 Atom       H96          H97          H98          H99          H100    
 Charge    0.10258      0.14492      0.15551      0.13994      0.13898
   
 Atom       H101         H102         H103         H104         H105    
 Charge    0.16801      0.19290      0.17079      0.13271      0.09497
   
 Atom       H106         H107         H108         H109         H110    
 Charge    0.09719      0.13505      0.14515      0.14260      0.13289
   
 Atom       H111         H112         H113         H114         H115    
 Charge    0.14587      0.12659      0.14829      0.11965      0.13135
   
 Atom       H116         H117         H118         H119         H120    
 Charge    0.14574      0.14358      0.10027      0.13334      0.14250
   
 Atom       H121         H122         H123         H124         H125    
 Charge    0.14119      0.14320      0.13989      0.13918      0.13038
   
 Atom       H126         H127         H128         H129         H130    
 Charge    0.15025      0.16731      0.15055      0.10090      0.14600
   
 Atom       H131         H132         H133         H134         H135    
 Charge    0.13754      0.18809      0.11816      0.20119      0.07225
   
 Atom       H136         H137         H138         H139         H140    
 Charge    0.23466      0.19962      0.21324      0.24484      0.15392
   
 Atom       S141         O142         C143         O144         F145    
 Charge    0.67093     -0.40470      0.48865     -0.47034     -0.11230
   
 Atom       F146         F147         H148    
 Charge   -0.15835     -0.16423      0.34446
  
  sum of atomic charges:    -0.000000
   
 RMS Error   9.80E-04 hartrees
 
  Peak memory usage:    816 Mb
  
  end of program ch
   
 Time(ch)  user:       16.9  user+sys:       16.9  wallclock:       18.3
  
  start of program post
  
  Writing input files for PBF
  Peak memory usage:    759 Mb
  
  end of program post
   
 Time(post)  user:        0.7  user+sys:        0.7  wallclock:        0.9

  start of program pbf

Pbf Version 4.10

Molecular surface area:      838.62495   [A2]
Reaction field energy:       -24.46635   [kT]
  Peak memory usage: 721 Mb

  end of program pbf

 Time(pbf)  user:       23.0  user+sys:       23.1  wallclock:       23.2
  
  start of program solv
  
   number of surface charges from PBF   13408
   sum of surface charges     -0.00059
   
  nuclear repulsion energy.......   20887.042715211 hartrees
  Peak memory usage:    894 Mb
  
  end of program solv
   
 Time(solv)  user:       32.3  user+sys:       32.3  wallclock:       32.5
  
  start of program scf
  
 Energy computed with NOPS off.
  
       i  u  d  i  g                   
       t  p  i  c  r                                 RMS    maximum
       e  d  i  u  i                       energy  density   DIIS  
       r  t  s  t  d       total energy    change  change    error 
  
etot    1  N  N  1  U   -5575.61863541260           5.5E-06  1.1E-04
etot    2  N  N  1  U   -5575.61862237099 -1.3E-05  0.0E+00  0.0E+00
  
  
 Energy components, in hartrees:
   (A)  Total zero-electron terms....   20890.59487344094
   (B)    Nuclear-nuclear............   20887.04271521147
   (C)    Nuclear-solvent............       3.55215822946
   (E)  Total one-electron terms.....  -49309.85593188116
   (F)    Electron-nuclear...........  -54842.44415608831
   (G)    Electron-solvent...........      -3.60205919063
   (H)    Kinetic....................    5536.19028339779
   (I)  Total two-electron terms.....   22843.64243606923
   (J)    Coulomb....................   23494.98454404096
   (K)    Exchange+Correlation.......    -651.34210797173
   (L)  Electronic energy............  -26466.21349581193  (E+I)
   (N)  Total quantum mech. energy...   -5575.61862237099  (A+L)
   (O)  Gas phase energy.............   -5575.57036606382
   (P)  Solution phase energy........   -5575.59367189041  (Q+R+S)
   (Q)    Total solute energy........   -5575.56872140982  (N-C-G)
   (R)    Total solvent energy.......      -0.02495048059  (C/2+G/2)
   (S)    Solute cavity energy.......       0.00000000000
   (U)  Reorganization energy........       0.00164465400  (Q-O)
   (V)  Solvation energy.............      -0.02330582658  (P-O)
  
 SCFE:  Solution phase energy: DFT(m06-2x)      -5575.59367189041 hartrees
        SCF iterations:   2
  
 
 HOMO energy:    -0.24976
 LUMO energy:    -0.06104
 
  Orbital energies (hartrees): 
   -90.15855   -90.13973   -78.21570   -67.01151   -67.00373   -25.27734
   -25.27679   -25.27433   -19.69809   -19.69298   -19.63966   -19.63755
   -19.61433   -19.61335   -19.60976   -14.84427   -14.78368   -14.78205
   -14.73973   -10.79245   -10.65341   -10.62801   -10.62617   -10.62493
   -10.62269   -10.61867   -10.60878   -10.59719   -10.59315   -10.57600
   -10.57254   -10.57207   -10.57127   -10.56912   -10.56898   -10.56641
   -10.56547   -10.56378   -10.56133   -10.55938   -10.55640   -10.55561
   -10.55512   -10.55504   -10.55484   -10.55462   -10.55453   -10.55439
   -10.55311   -10.55257   -10.55238   -10.55227   -10.55183   -10.55145
   -10.55126   -10.55113   -10.54971   -10.54938   -10.54938   -10.54872
   -10.54867   -10.54858   -10.54851   -10.54842   -10.54797   -10.54796
   -10.54746   -10.54740   -10.54673   -10.54612   -10.54595   -10.54541
   -10.54536   -10.54413   -10.54410   -10.54369   -10.54323   -10.54225
   -10.54170   -10.54020   -10.53688   -10.53671   -10.53649   -10.53217
   -10.53192   -10.53151   -10.53112   -10.53004   -10.52905   -10.52870
   -10.52836   -10.51843    -8.46823    -8.44848    -6.99486    -6.39035
    -6.38993    -6.38865    -6.37038    -6.36992    -6.36980    -5.54296
    -5.53501    -5.11315    -5.11253    -5.11072    -3.85279    -3.85249
    -3.85212    -3.84472    -3.84465    -3.84420    -1.44381    -1.35326
    -1.35124    -1.23234    -1.22996    -1.20487    -1.18854    -1.13501
    -1.11994    -1.09569    -1.09215    -1.07150    -1.03360    -0.98640
    -0.97559    -0.96553    -0.96285    -0.94841    -0.94447    -0.94298
    -0.93889    -0.93691    -0.92574    -0.92511    -0.92257    -0.91225
    -0.90857    -0.89726    -0.88875    -0.87673    -0.85316    -0.85285
    -0.84634    -0.84419    -0.84141    -0.83815    -0.83738    -0.83494
    -0.83374    -0.83147    -0.82966    -0.82909    -0.82809    -0.82606
    -0.82456    -0.82303    -0.81611    -0.81351    -0.81254    -0.79896
    -0.78989    -0.75713    -0.75261    -0.72582    -0.72211    -0.71438
    -0.70523    -0.70380    -0.70077    -0.69822    -0.68865    -0.68669
    -0.68526    -0.68455    -0.68168    -0.67953    -0.67662    -0.67559
    -0.67395    -0.67146    -0.67038    -0.66922    -0.66737    -0.66617
    -0.66602    -0.66104    -0.65740    -0.65430    -0.65399    -0.64991
    -0.64722    -0.63946    -0.62753    -0.62475    -0.60903    -0.60829
    -0.60107    -0.59961    -0.59167    -0.58373    -0.58124    -0.57966
    -0.57664    -0.57520    -0.57426    -0.57067    -0.56869    -0.56716
    -0.56613    -0.55925    -0.55819    -0.55289    -0.54862    -0.54740
    -0.54516    -0.54328    -0.53885    -0.53690    -0.53519    -0.52792
    -0.52610    -0.52426    -0.52159    -0.52094    -0.51955    -0.51613
    -0.51565    -0.51369    -0.51246    -0.50942    -0.50874    -0.50737
    -0.50466    -0.50411    -0.50392    -0.50214    -0.50048    -0.49949
    -0.49729    -0.49627    -0.49589    -0.49519    -0.49369    -0.49326
    -0.48912    -0.48791    -0.48684    -0.48450    -0.48428    -0.48394
    -0.48309    -0.48255    -0.48213    -0.48013    -0.47769    -0.47704
    -0.47616    -0.47255    -0.46949    -0.46562    -0.46519    -0.46021
    -0.45567    -0.45123    -0.44845    -0.44815    -0.44739    -0.44590
    -0.44524    -0.44313    -0.43561    -0.43419    -0.42991    -0.42770
    -0.42619    -0.42385    -0.42260    -0.42081    -0.41905    -0.41710
    -0.41617    -0.41091    -0.40808    -0.40342    -0.40144    -0.40041
    -0.39818    -0.39626    -0.39545    -0.39392    -0.39343    -0.39231
    -0.39014    -0.38891    -0.38673    -0.38581    -0.38259    -0.38115
    -0.37647    -0.37537    -0.37459    -0.37319    -0.37078    -0.36115
    -0.35978    -0.35370    -0.35323    -0.35186    -0.34685    -0.34411
    -0.34285    -0.33897    -0.33856    -0.33700    -0.33500    -0.33228
    -0.33101    -0.32838    -0.32132    -0.31335    -0.30862    -0.30746
    -0.30683    -0.30435    -0.30373    -0.30241    -0.30162    -0.29802
    -0.29681    -0.29318    -0.28822    -0.28666    -0.28626    -0.28491
    -0.27765    -0.27763    -0.27021    -0.24976    -0.06104    -0.01591
    -0.00809    -0.00144     0.01049     0.01189     0.01587     0.01655
     0.01848     0.02128
 
  Peak memory usage:   1029 Mb
  
  end of program scf
   
 Time(scf)  user:     2298.7  user+sys:     2298.7  wallclock:     2332.5
  
  start of program sole
  
    SCRF                   solvation energy
  iteration          Hartrees            kcal/mol
     0               0.0000000            0.0000
     1              -0.0215299          -13.5102
     2              -0.0230171          -14.4434
     3              -0.0233058          -14.6246
  
  solvation energy not yet converged... 
  
  Peak memory usage:    813 Mb
  
  end of program sole
   
 Time(sole)  user:        0.1  user+sys:        0.1  wallclock:        0.1
  
  start of program ch
  
[...]
       t  p  i  c  r                                 RMS    maximum
       e  d  i  u  i                       energy  density   DIIS  
       r  t  s  t  d       total energy    change  change    error 
  
etot    1  N  N  1  U   -5575.61866273901           1.3E-05  3.0E-04
etot    2  N  Y  1  U   -5575.61855263723 -1.1E-04  8.4E-06  5.1E-04
etot    3  N  Y  1  U   -5575.61872446016  1.7E-04  3.6E-07  1.3E-05
etot    4  N  N  1  U   -5575.61872480228  3.4E-07  0.0E+00  0.0E+00
  
  
 Energy components, in hartrees:
   (A)  Total zero-electron terms....   20890.61344093384
   (B)    Nuclear-nuclear............   20887.04271521147
   (C)    Nuclear-solvent............       3.57072572237
   (E)  Total one-electron terms.....  -49310.12699455630
   (F)    Electron-nuclear...........  -54842.70274410403
   (G)    Electron-solvent...........      -3.62083743791
   (H)    Kinetic....................    5536.19658698564
   (I)  Total two-electron terms.....   22843.89482882018
   (J)    Coulomb....................   23495.23753289067
   (K)    Exchange+Correlation.......    -651.34270407049
   (L)  Electronic energy............  -26466.23216573612  (E+I)
   (N)  Total quantum mech. energy...   -5575.61872480228  (A+L)
   (O)  Gas phase energy.............   -5575.57036606382
   (P)  Solution phase energy........   -5575.59366894451  (Q+R+S)
   (Q)    Total solute energy........   -5575.56861308674  (N-C-G)
   (R)    Total solvent energy.......      -0.02505585777  (C/2+G/2)
   (S)    Solute cavity energy.......       0.00000000000
   (U)  Reorganization energy........       0.00175297709  (Q-O)
   (V)  Solvation energy.............      -0.02330288068  (P-O)
  
 SCFE:  Solution phase energy: DFT(m06-2x)      -5575.59366894451 hartrees
        SCF iterations:   4
  
 
 HOMO energy:    -0.24939
 LUMO energy:    -0.06090
 
  Orbital energies (hartrees): 
   -90.15745   -90.13902   -78.21482   -67.01041   -67.00282   -25.27679
   -25.27647   -25.27381   -19.69598   -19.69307   -19.63921   -19.63731
   -19.61393   -19.61315   -19.61060   -14.84222   -14.78262   -14.78061
   -14.73867   -10.79186   -10.65494   -10.62662   -10.62477   -10.62355
   -10.62204   -10.61712   -10.60811   -10.59754   -10.59466   -10.57661
   -10.57244   -10.57096   -10.57076   -10.57006   -10.56851   -10.56570
   -10.56471   -10.56437   -10.56190   -10.55896   -10.55666   -10.55553
   -10.55542   -10.55518   -10.55512   -10.55511   -10.55496   -10.55454
   -10.55349   -10.55337   -10.55277   -10.55187   -10.55185   -10.55157
   -10.55143   -10.55091   -10.54983   -10.54939   -10.54914   -10.54880
   -10.54868   -10.54827   -10.54814   -10.54797   -10.54781   -10.54729
   -10.54684   -10.54661   -10.54645   -10.54644   -10.54636   -10.54585
   -10.54467   -10.54447   -10.54370   -10.54348   -10.54248   -10.54242
   -10.54163   -10.54016   -10.53580   -10.53578   -10.53546   -10.53201
   -10.53158   -10.53104   -10.53046   -10.52886   -10.52841   -10.52832
   -10.52753   -10.51721    -8.46718    -8.44780    -6.99402    -6.38929
    -6.38888    -6.38759    -6.36969    -6.36924    -6.36911    -5.54190
    -5.53412    -5.11231    -5.11168    -5.10988    -3.85173    -3.85142
    -3.85106    -3.84383    -3.84376    -3.84330    -1.44333    -1.35278
    -1.35078    -1.23164    -1.22907    -1.20439    -1.18773    -1.13450
    -1.11935    -1.09545    -1.09175    -1.07083    -1.03266    -0.98599
    -0.97500    -0.96527    -0.96263    -0.94819    -0.94436    -0.94290
    -0.93875    -0.93649    -0.92557    -0.92478    -0.92238    -0.91229
    -0.90837    -0.89687    -0.88838    -0.87642    -0.85293    -0.85270
    -0.84612    -0.84410    -0.84116    -0.83797    -0.83712    -0.83477
    -0.83362    -0.83130    -0.82945    -0.82881    -0.82784    -0.82584
    -0.82439    -0.82262    -0.81579    -0.81317    -0.81204    -0.79861
    -0.78949    -0.75658    -0.75218    -0.72561    -0.72163    -0.71401
    -0.70489    -0.70348    -0.70049    -0.69788    -0.68844    -0.68654
    -0.68501    -0.68424    -0.68141    -0.67931    -0.67642    -0.67540
    -0.67366    -0.67123    -0.67014    -0.66883    -0.66711    -0.66591
    -0.66558    -0.66086    -0.65703    -0.65405    -0.65374    -0.64960
    -0.64689    -0.63895    -0.62708    -0.62424    -0.60868    -0.60792
    -0.60080    -0.59933    -0.59121    -0.58354    -0.58108    -0.57948
    -0.57645    -0.57486    -0.57388    -0.57034    -0.56841    -0.56687
    -0.56570    -0.55915    -0.55796    -0.55248    -0.54824    -0.54700
    -0.54474    -0.54283    -0.53855    -0.53662    -0.53483    -0.52769
    -0.52586    -0.52403    -0.52127    -0.52062    -0.51944    -0.51601
    -0.51548    -0.51344    -0.51207    -0.50906    -0.50831    -0.50716
    -0.50433    -0.50383    -0.50363    -0.50192    -0.50046    -0.49933
    -0.49706    -0.49608    -0.49573    -0.49497    -0.49355    -0.49297
    -0.48893    -0.48772    -0.48644    -0.48437    -0.48401    -0.48374
    -0.48284    -0.48232    -0.48185    -0.48005    -0.47764    -0.47686
    -0.47584    -0.47218    -0.46914    -0.46533    -0.46491    -0.45984
    -0.45544    -0.45101    -0.44828    -0.44788    -0.44728    -0.44573
    -0.44500    -0.44286    -0.43532    -0.43388    -0.42964    -0.42751
    -0.42590    -0.42368    -0.42225    -0.42051    -0.41890    -0.41669
    -0.41580    -0.41056    -0.40784    -0.40326    -0.40127    -0.40004
    -0.39805    -0.39602    -0.39501    -0.39359    -0.39330    -0.39191
    -0.39006    -0.38870    -0.38653    -0.38543    -0.38222    -0.38066
    -0.37620    -0.37497    -0.37426    -0.37287    -0.37034    -0.36100
    -0.35947    -0.35333    -0.35287    -0.35154    -0.34637    -0.34367
    -0.34238    -0.33844    -0.33805    -0.33654    -0.33444    -0.33181
    -0.33053    -0.32801    -0.32081    -0.31286    -0.30850    -0.30721
    -0.30658    -0.30421    -0.30352    -0.30215    -0.30133    -0.29786
    -0.29671    -0.29276    -0.28794    -0.28626    -0.28602    -0.28452
    -0.27740    -0.27733    -0.26981    -0.24939    -0.06090    -0.01555
    -0.00779    -0.00127     0.01079     0.01205     0.01618     0.01680
     0.01876     0.02155
 
  Peak memory usage:   1029 Mb
  
  end of program scf
   
 Time(scf)  user:     6819.1  user+sys:     6819.1  wallclock:     6909.9
  
  start of program sole
  
    SCRF                   solvation energy
  iteration          Hartrees            kcal/mol
     0               0.0000000            0.0000
     1              -0.0215299          -13.5102
     2              -0.0230171          -14.4434
     3              -0.0233058          -14.6246
     4              -0.0230692          -14.4762
     5              -0.0233029          -14.6228
  
  solvation energy not yet converged... 
  
  Peak memory usage:    813 Mb
  
  end of program sole
   
 Time(sole)  user:        0.1  user+sys:        0.1  wallclock:        0.1
  
  start of program ch
  
  gridpoints used for charge fit        16771
    out of a possible maximum of        16771
  
   Electrostatic potential fitting constrained to reproduce
     total charge:                yes
     dipole moment:               no 
     traceless quadrupole moment: no 
     traceless octapole moment:   no 
  
  Atomic charges from electrostatic potential: 
   
 Atom       C1           C2           C3           C4           C5      
 Charge   -0.03464     -0.08212     -0.22014      0.18210      0.10898
   
 Atom       C6           C7           C8           C9           C10     
 Charge   -0.24299     -0.27109     -0.08691      0.13633     -0.38446
   
 Atom       C11          O12          Si13         C14          C15     
 Charge    0.02371     -0.30119     -0.35413      0.16793      0.45520
   
 Atom       C16          C17          C18          C19          C20     
 Charge    0.22175     -0.14933     -0.35842     -0.27799      0.03995
   
 Atom       Si21         O22          C23          C24          P25     
 Charge   -0.41992     -0.37697     -0.18644     -0.09503      1.00512
   
 Atom       O26          N27          C28          C29          C30     
 Charge   -0.66063     -0.61954      0.19614      0.22970      0.38896
   
 Atom       C31          C32          C33          C34          C35     
 Charge    0.49887      0.22111      0.13482     -0.14781     -0.22996
   
 Atom       C36          C37          C38          C39          C40     
 Charge   -0.15797     -0.21253     -0.23933     -0.29089     -0.32949
   
 Atom       C41          C42          C43          C44          C45     
 Charge   -0.27972     -0.15645     -0.18372     -0.06904     -0.20289
   
 Atom       C46          C47          C48          C49          C50     
 Charge   -0.16172     -0.15595     -0.10039     -0.19305     -0.08830
   
 Atom       C51          C52          C53          C54          C55     
 Charge   -0.16791     -0.10708     -0.18550     -0.11084     -0.19739
   
 Atom       C56          C57          C58          C59          C60     
 Charge   -0.08833     -0.12828     -0.16884     -0.15059     -0.13966
   
 Atom       C61          C62          C63          C64          C65     
 Charge   -0.17339     -0.15195     -0.10808     -0.11101     -0.32539
   
 Atom       C66          C67          C68          C69          C70     
 Charge    0.42514     -0.23897     -0.07493     -0.18526     -0.25463
   
 Atom       N71          S72          O73          O74          C75     
 Charge   -0.42776      0.65564     -0.48214     -0.45493      0.53743
   
 Atom       C76          C77          C78          C79          N80     
 Charge   -0.39229      0.17549     -0.44024      0.34399     -0.58661
   
 Atom       N81          C82          C83          C84          C85     
 Charge    0.01150      0.03038     -0.20051     -0.29014      0.20895
   
 Atom       H86          H87          H88          H89          H90     
 Charge    0.09061      0.16137      0.14887      0.16958      0.13673
   
 Atom       H91          H92          H93          H94          H95     
 Charge    0.12173      0.18668      0.16286      0.15172      0.13433
   
 Atom       H96          H97          H98          H99          H100    
 Charge    0.10260      0.14472      0.15587      0.13977      0.13901
   
 Atom       H101         H102         H103         H104         H105    
 Charge    0.16795      0.19339      0.17064      0.13271      0.09470
   
 Atom       H106         H107         H108         H109         H110    
 Charge    0.09708      0.13467      0.14525      0.14271      0.13295
   
 Atom       H111         H112         H113         H114         H115    
 Charge    0.14584      0.12664      0.14835      0.11999      0.13145
   
 Atom       H116         H117         H118         H119         H120    
 Charge    0.14546      0.14386      0.10001      0.13332      0.14259
   
 Atom       H121         H122         H123         H124         H125    
 Charge    0.14132      0.14324      0.13997      0.13931      0.13049
   
 Atom       H126         H127         H128         H129         H130    
 Charge    0.15037      0.16735      0.15051      0.10068      0.14617
   
 Atom       H131         H132         H133         H134         H135    
 Charge    0.13702      0.18798      0.11834      0.20151      0.07231
   
 Atom       H136         H137         H138         H139         H140    
 Charge    0.23549      0.20009      0.21390      0.24495      0.15396
   
 Atom       S141         O142         C143         O144         F145    
 Charge    0.67049     -0.40507      0.48880     -0.47003     -0.11200
   
 Atom       F146         F147         H148    
 Charge   -0.15835     -0.16447      0.34425
  
  sum of atomic charges:    -0.000000
   
 RMS Error   9.81E-04 hartrees
 
  Peak memory usage:    816 Mb
  
  end of program ch
   
 Time(ch)  user:       17.0  user+sys:       17.0  wallclock:       18.3
  
  start of program post
  
  Writing input files for PBF
  Peak memory usage:    759 Mb
  
  end of program post
   
 Time(post)  user:        0.6  user+sys:        0.6  wallclock:        0.8

  start of program pbf

Pbf Version 4.10

Molecular surface area:      838.62495   [A2]
Reaction field energy:       -24.43934   [kT]
  Peak memory usage: 721 Mb

  end of program pbf

 Time(pbf)  user:       22.9  user+sys:       23.0  wallclock:       23.2
  
  start of program solv
  
   number of surface charges from PBF   13408
   sum of surface charges     -0.00058
   
  nuclear repulsion energy.......   20887.042715211 hartrees
  Peak memory usage:    894 Mb
  
  end of program solv
   
 Time(solv)  user:       32.3  user+sys:       32.3  wallclock:       32.5
  
  start of program scf
  
 Energy computed with NOPS off.
  
       i  u  d  i  g                   
       t  p  i  c  r                                 RMS    maximum
       e  d  i  u  i                       energy  density   DIIS  
       r  t  s  t  d       total energy    change  change    error 
  
etot    1  N  N  1  U   -5575.61862391540           7.4E-07  1.3E-05
etot    2  N  N  1  U   -5575.61862388830 -2.7E-08  0.0E+00  0.0E+00
  
  
 Energy components, in hartrees:
   (A)  Total zero-electron terms....   20890.58676421266
   (B)    Nuclear-nuclear............   20887.04271521147
   (C)    Nuclear-solvent............       3.54404900119
   (E)  Total one-electron terms.....  -49310.07375238485
   (F)    Electron-nuclear...........  -54842.67605440010
   (G)    Electron-solvent...........      -3.59402824738
   (H)    Kinetic....................    5536.19633026263
   (I)  Total two-electron terms.....   22843.86836428389
   (J)    Coulomb....................   23495.21101309792
   (K)    Exchange+Correlation.......    -651.34264881402
   (L)  Electronic energy............  -26466.20538810096  (E+I)
   (N)  Total quantum mech. energy...   -5575.61862388830  (A+L)
   (O)  Gas phase energy.............   -5575.57036606382
   (P)  Solution phase energy........   -5575.59363426520  (Q+R+S)
   (Q)    Total solute energy........   -5575.56864464211  (N-C-G)
   (R)    Total solvent energy.......      -0.02498962310  (C/2+G/2)
   (S)    Solute cavity energy.......       0.00000000000
   (U)  Reorganization energy........       0.00172142172  (Q-O)
   (V)  Solvation energy.............      -0.02326820138  (P-O)
  
 SCFE:  Solution phase energy: DFT(m06-2x)      -5575.59363426520 hartrees
        SCF iterations:   2
  
 
 HOMO energy:    -0.24940
 LUMO energy:    -0.06091
 
  Orbital energies (hartrees): 
   -90.15750   -90.13901   -78.21480   -67.01043   -67.00286   -25.27677
   -25.27647   -25.27379   -19.69604   -19.69294   -19.63928   -19.63730
   -19.61385   -19.61320   -19.61061   -14.84233   -14.78262   -14.78073
   -14.73865   -10.79184   -10.65477   -10.62670   -10.62477   -10.62367
   -10.62197   -10.61726   -10.60826   -10.59748   -10.59452   -10.57654
   -10.57245   -10.57101   -10.57080   -10.56994   -10.56850   -10.56572
   -10.56473   -10.56434   -10.56186   -10.55903   -10.55666   -10.55549
   -10.55528   -10.55527   -10.55512   -10.55508   -10.55498   -10.55448
   -10.55335   -10.55335   -10.55274   -10.55184   -10.55176   -10.55168
   -10.55141   -10.55092   -10.54983   -10.54938   -10.54909   -10.54877
   -10.54866   -10.54833   -10.54827   -10.54791   -10.54783   -10.54728
   -10.54696   -10.54660   -10.54643   -10.54637   -10.54630   -10.54580
   -10.54467   -10.54442   -10.54370   -10.54351   -10.54253   -10.54239
   -10.54161   -10.54014   -10.53583   -10.53579   -10.53548   -10.53197
   -10.53157   -10.53105   -10.53052   -10.52887   -10.52845   -10.52829
   -10.52762   -10.51724    -8.46723    -8.44779    -6.99399    -6.38935
    -6.38893    -6.38765    -6.36968    -6.36923    -6.36910    -5.54192
    -5.53415    -5.11228    -5.11166    -5.10986    -3.85175    -3.85144
    -3.85108    -3.84387    -3.84379    -3.84334    -1.44331    -1.35276
    -1.35076    -1.23167    -1.22905    -1.20439    -1.18770    -1.13451
    -1.11938    -1.09541    -1.09176    -1.07088    -1.03270    -0.98599
    -0.97500    -0.96529    -0.96262    -0.94819    -0.94435    -0.94288
    -0.93875    -0.93649    -0.92559    -0.92478    -0.92238    -0.91228
    -0.90836    -0.89689    -0.88840    -0.87643    -0.85293    -0.85271
    -0.84612    -0.84409    -0.84116    -0.83796    -0.83712    -0.83476
    -0.83360    -0.83131    -0.82944    -0.82880    -0.82784    -0.82584
    -0.82438    -0.82262    -0.81579    -0.81317    -0.81203    -0.79862
    -0.78950    -0.75658    -0.75219    -0.72562    -0.72163    -0.71402
    -0.70488    -0.70348    -0.70050    -0.69788    -0.68844    -0.68654
    -0.68501    -0.68424    -0.68141    -0.67931    -0.67641    -0.67539
    -0.67365    -0.67123    -0.67013    -0.66882    -0.66710    -0.66590
    -0.66557    -0.66085    -0.65702    -0.65405    -0.65374    -0.64960
    -0.64689    -0.63894    -0.62709    -0.62424    -0.60868    -0.60792
    -0.60079    -0.59933    -0.59122    -0.58353    -0.58107    -0.57947
    -0.57644    -0.57486    -0.57389    -0.57034    -0.56842    -0.56687
    -0.56570    -0.55914    -0.55797    -0.55248    -0.54824    -0.54698
    -0.54473    -0.54282    -0.53854    -0.53662    -0.53483    -0.52769
    -0.52586    -0.52403    -0.52127    -0.52062    -0.51943    -0.51600
    -0.51547    -0.51343    -0.51206    -0.50906    -0.50830    -0.50715
    -0.50432    -0.50382    -0.50362    -0.50191    -0.50045    -0.49932
    -0.49706    -0.49608    -0.49572    -0.49497    -0.49356    -0.49297
    -0.48893    -0.48772    -0.48643    -0.48437    -0.48402    -0.48374
    -0.48284    -0.48232    -0.48185    -0.48003    -0.47763    -0.47686
    -0.47583    -0.47218    -0.46913    -0.46533    -0.46491    -0.45985
    -0.45543    -0.45101    -0.44827    -0.44788    -0.44728    -0.44572
    -0.44500    -0.44287    -0.43532    -0.43388    -0.42963    -0.42750
    -0.42589    -0.42367    -0.42225    -0.42051    -0.41889    -0.41670
    -0.41580    -0.41056    -0.40784    -0.40325    -0.40127    -0.40004
    -0.39804    -0.39602    -0.39502    -0.39358    -0.39329    -0.39191
    -0.39004    -0.38869    -0.38653    -0.38543    -0.38223    -0.38068
    -0.37619    -0.37498    -0.37426    -0.37286    -0.37034    -0.36101
    -0.35948    -0.35334    -0.35288    -0.35154    -0.34638    -0.34367
    -0.34239    -0.33844    -0.33807    -0.33655    -0.33446    -0.33181
    -0.33052    -0.32801    -0.32081    -0.31288    -0.30849    -0.30720
    -0.30658    -0.30420    -0.30351    -0.30215    -0.30133    -0.29786
    -0.29670    -0.29276    -0.28794    -0.28626    -0.28602    -0.28453
    -0.27739    -0.27734    -0.26981    -0.24940    -0.06091    -0.01556
    -0.00780    -0.00126     0.01079     0.01205     0.01619     0.01681
     0.01876     0.02156
 
  Peak memory usage:   1029 Mb
  
  end of program scf
   
 Time(scf)  user:     2290.9  user+sys:     2290.9  wallclock:     2326.1
  
  start of program sole
  
    SCRF                   solvation energy
  iteration          Hartrees            kcal/mol
     0               0.0000000            0.0000
     1              -0.0215299          -13.5102
     2              -0.0230171          -14.4434
     3              -0.0233058          -14.6246
     4              -0.0230692          -14.4762
     5              -0.0233029          -14.6228
     6              -0.0232682          -14.6010
  
  stopping: solvation energy converged
  
  iterations:   6    sfinal:    -14.6010 kcal/mol
  
  Peak memory usage:    813 Mb
  
  end of program sole
   
 Time(sole)  user:        0.1  user+sys:        0.1  wallclock:        0.1
  
  start of program post
  
  Writing input files for PBF
  Peak memory usage:    759 Mb
  
  end of program post
   
 Time(post)  user:        0.6  user+sys:        0.6  wallclock:        0.9

 Total cpu seconds     user:   54233.759   user+sys:   54233.759
  
 Total elapsed time:    55135 seconds

Job Toru-SiPh3-NTf-Type-I-E-3-chkp-unrestrained-IRC-min-disp-SPE completed on tethys at Tue Mar 21 03:21:46 2017
