Job Toru-NTf-Sulfonyl-2-chkp-unrestrained-uff-acc-sol started on tethys at Fri Feb 10 14:35:24 2017
jobid: tethys-0-589dcfab

  +--------------------------------------------------------------------+
  |  Jaguar version 8.4, release  16                                   |
  |                                                                    |
  |  Copyright Schrodinger, Inc.                                       |
  |  All Rights Reserved.                                              |
  |                                                                    |
  |  The following have contributed to Jaguar (listed alphabetically): |
  |  Mike Beachy, Art Bochevarov, Dale Braden, Yixiang Cao,            |
  |  Chris Cortis, Rich Friesner, Bill Goddard, Hod Greeley,           |
  |  Tom Hughes, Jean-Marc Langlois, Daniel Mainz, Rob Murphy,         |
  |  Dean Philipp, Tom Pollard, Murco Ringnalda.                       |
  |                                                                    |
  |  Use of this program should be acknowledged in publications as:    |
  |                                                                    |
  |  Jaguar, version 8.4, Schrodinger, Inc., New York, NY, 2013.       |
  |                                                                    |
  |  A. D. Bochevarov, E. Harder, T. F. Hughes, J. R. Greenwood,       |
  |  D. A. Braden, D. M. Philipp, D. Rinaldo, M. D. Halls,             |
  |  J. Zhang, R. A. Friesner, "Jaguar: A High-Performance Quantum     |
  |  Chemistry Software Program with Strengths in Life and Materials   |
  |  Sciences", Int. J. Quantum Chem., 2013, 113(18), 2110-2142.       |
  +--------------------------------------------------------------------+
  
  start of program pre
  
  Job name: Toru-NTf-Sulfonyl-2-chkp-unrestrained-uff-acc-sol
  Executables used: /usr/local/shared/schrodinger/current/jaguar-v84016/bin/Linux-x86_64
  Temporary files : /home/ab2144/.schrodinger/tmp/Toru-NTf-Sulfonyl-2-chkp-unrestrained-uff-acc-sol
  Maestro file (input):  Toru-NTf-Sulfonyl-2-chkp-unrestrained-uff-acc-sol.mae
  Maestro file (output): Toru-NTf-Sulfonyl-2-chkp-unrestrained-uff-acc-sol.01.mae
  
  
  basis set:             6-31g**         
  net molecular charge:    0
  multiplicity:            1
  
  keygrid settings 
    wispc.....   7.500E-01
    ldens.....   0
    denspc....   7.500E-01
  
   grid     daf set  nls  grid set  Q type
  ------    -------  ---  --------  ------
  coarse       1      1       1        1
  medium       2      2       2        1
  fine         3      2       3        0
  ultrafine    4      2       4        1
  charge       0      1      -1        1
  gradient     5      2       4        1
  density      0      1       0        0
  DFT-fine     0      1     -13        0
  DFT-med.     0      1     -13        0
  DFT-grad     0      1     -13        0
  DFT-der2     0      1       0        0
  DFT-cphf     0      1       0        0
  LMP2-enrg    4      2       4        1
  LMP2-grad    5      2       2        1
  DFT-cphf2    0      1       0        0
  PBF-dens     0      1       0        0
  plotting     0      1       0        0
  
  idftgrdm  100
  ndftgrdm   50    0    0
  idftgrdf  111
  ndftgrdf   85    0    0
  idftgrdg  111
  ndftgrdg   80    3    0
  idftgrdu  433
  ndftgrdu  105    0    0
  idftgrdd  433
  ndftgrdd  105    0    0
  idftgrdc  433
  ndftgrdc   26    0    0
  idftgrdp  433
  ndftgrdp   18    0    0
  
  number of basis functions....         1680
  
 Input geometry:
                                   angstroms
  atom               x                 y                 z
  C1            2.2668000000      5.3212000000     -1.3440000000 
  C2            0.9485000000      4.7224000000     -0.9893000000 
  C3            2.4219000000      6.6497000000     -1.3764000000 
  C4           -0.0688000000      5.5448000000     -0.6495000000 
  C5            0.7401000000      3.2402000000     -0.9602000000 
  C6            0.1124000000      7.0147000000     -0.6940000000 
  C7           -1.3515000000      4.9853000000     -0.1891000000 
  C8            1.2917000000      7.5366000000     -1.0455000000 
  C9           -0.4134000000      2.7372000000     -0.4538000000 
  C10           1.8249000000      2.3236000000     -1.3976000000 
  C11          -1.5194000000      3.6604000000     -0.0766000000 
  O12          -0.6556000000      1.3839000000     -0.4555000000 
  Si13         -3.1148000000      2.9954000000      0.6280000000 
  C14           2.3511000000      2.3433000000     -2.6415000000 
  C15           2.4015000000      1.4149000000     -0.3748000000 
  C16           3.5904000000      1.5743000000     -2.9200000000 
  C17           1.7546000000      3.1154000000     -3.7588000000 
  C18           4.1942000000      0.8864000000     -1.9400000000 
  C19           4.1603000000      1.6231000000     -4.2809000000 
  C20           3.5914000000      0.8140000000     -0.5885000000 
  Si21          4.4662000000     -0.1854000000      0.7373000000 
  O22           1.6867000000      1.1808000000      0.7713000000 
  C23           2.3272000000      3.1104000000     -4.9684000000 
  C24           3.5644000000      2.3450000000     -5.2366000000 
  P25           0.2650000000      0.4275000000      0.5103000000 
  O26          -0.3553000000      0.1759000000      1.8478000000 
  N27           0.6289000000     -0.8772000000     -0.3944000000 
  C28          -4.4144000000      4.3298000000      0.5675000000 
  C29          -3.6929000000      1.5893000000     -0.4496000000 
  C30          -2.8376000000      2.4841000000      2.4009000000 
  C31           4.3390000000     -2.0006000000      0.3588000000 
  C32           6.2867000000      0.2157000000      0.7235000000 
  C33           3.7265000000      0.1891000000      2.4122000000 
  C34          -4.8893000000      4.7567000000     -0.6153000000 
  C35          -4.9056000000      4.9630000000      1.8171000000 
  C36          -4.2692000000      0.4902000000      0.0658000000 
  C37          -3.5468000000      1.7083000000     -1.9217000000 
  C38          -1.6301000000      2.6194000000      2.9774000000 
  C39          -3.9765000000      1.9921000000      3.2152000000 
  C40           3.5790000000     -2.4518000000     -0.6522000000 
  C41           5.1270000000     -2.9636000000      1.1650000000 
  C42           6.8564000000      0.9492000000      1.6958000000 
  C43           7.1395000000     -0.3370000000     -0.3584000000 
  C44           3.1812000000     -0.7820000000      3.1628000000 
  C45           3.6457000000      1.5966000000      2.8792000000 
  C46          -5.9112000000      5.8226000000     -0.6687000000 
  C47          -6.3609000000      6.3778000000      0.4621000000 
  C48          -5.8297000000      5.9304000000      1.7648000000 
  C49          -4.8033000000     -0.5591000000     -0.8283000000 
  C50          -4.6917000000     -0.4311000000     -2.1548000000 
  C51          -4.0181000000      0.7498000000     -2.7277000000 
  C52          -1.4294000000      2.2345000000      4.3896000000 
  C53          -2.4579000000      1.7784000000      5.1128000000 
  C54          -3.7953000000      1.6584000000      4.4987000000 
  C55           3.5068000000     -3.8991000000     -0.9399000000 
  C56           4.2162000000     -4.7649000000     -0.2065000000 
  C57           5.0710000000     -4.2735000000      0.8936000000 
  C58           8.3051000000      1.2397000000      1.6597000000 
  C59           9.0623000000      0.7574000000      0.6681000000 
  C60           8.4520000000     -0.0758000000     -0.3860000000 
  C61           2.5062000000     -0.4538000000      4.4354000000 
  C62           2.4297000000      0.8173000000      4.8455000000 
  C63           3.0276000000      1.8926000000      4.0292000000 
  C64           0.0477000000     -4.4945000000      4.4418000000 
  C65          -1.0372000000     -4.4819000000      3.5681000000 
  C66          -0.8440000000     -4.2637000000      2.1922000000 
  C67           0.4559000000     -4.0580000000      1.7036000000 
  C68           1.5345000000     -4.0984000000      2.5814000000 
  C69           1.3388000000     -4.3065000000      3.9480000000 
  C70          -2.0368000000     -4.3172000000      1.3172000000 
  N71          -1.8949000000     -4.5941000000     -0.0253000000 
  S72          -3.1466000000     -5.4365000000     -0.8350000000 
  O73          -2.7980000000     -6.8509000000     -0.9242000000 
  O74          -4.4027000000     -5.0370000000     -0.1810000000 
  C75          -3.0739000000     -4.6953000000     -2.4816000000 
  C76          -4.1812000000     -4.0125000000     -2.9724000000 
  C77          -4.0737000000     -3.5145000000     -4.2722000000 
  C78          -2.8865000000     -3.7082000000     -4.9741000000 
  C79          -1.8420000000     -4.4047000000     -4.3596000000 
  N80          -1.9366000000     -4.9092000000     -3.1269000000 
  N81          -2.2415000000     -1.6378000000      2.3450000000 
  C82          -2.8629000000     -1.5789000000      3.5169000000 
  C83          -4.0601000000     -2.3362000000      3.4648000000 
  C84          -4.1395000000     -2.8518000000      2.1865000000 
  C85          -2.9352000000     -2.4967000000      1.4790000000 
  H86           3.1211000000      4.6957000000     -1.5625000000 
  H87           3.3821000000      7.0779000000     -1.6337000000 
  H88          -0.7095000000      7.6723000000     -0.4395000000 
  H89          -2.1371000000      5.6696000000      0.1036000000 
  H90           1.4235000000      8.6105000000     -1.0763000000 
  H91           0.8394000000      3.6764000000     -3.6182000000 
  H92           5.1055000000      0.3467000000     -2.1510000000 
  H93           5.0658000000      1.0757000000     -4.5140000000 
  H94           1.8746000000      3.6741000000     -5.7740000000 
  H95           3.9932000000      2.3714000000     -6.2301000000 
  H96          -4.5323000000      4.3349000000     -1.5443000000 
  H97          -4.5108000000      4.6664000000      2.7785000000 
  H98          -4.3759000000      0.3569000000      1.1303000000 
  H99          -3.0501000000      2.5680000000     -2.3533000000 
  H100         -0.7833000000      3.0036000000      2.4257000000 
  H101         -4.9666000000      1.9235000000      2.7828000000 
  H102          3.0151000000     -1.7715000000     -1.2726000000 
  H103          5.7521000000     -2.6104000000      1.9756000000 
  H104          6.2792000000      1.3396000000      2.5191000000 
  H105          6.7119000000     -0.9765000000     -1.1195000000 
  H106          3.2045000000     -1.8104000000      2.8436000000 
  H107          4.0616000000      2.3940000000      2.2761000000 
  H108         -6.2942000000      6.1530000000     -1.6256000000 
  H109         -7.1086000000      7.1594000000      0.4246000000 
  H110         -6.1829000000      6.3940000000      2.6769000000 
  H111         -5.2915000000     -1.4284000000     -0.4069000000 
  H112         -5.0946000000     -1.1905000000     -2.8097000000 
  H113         -3.9078000000      0.8385000000     -3.8007000000 
  H114         -0.4479000000      2.3248000000      4.8369000000 
  H115         -2.3127000000      1.4969000000      6.1476000000 
  H116         -4.6289000000      1.3032000000      5.0906000000 
  H117          2.8799000000     -4.2561000000     -1.7467000000 
  H118          4.1647000000     -5.8253000000     -0.4163000000 
  H119          5.6457000000     -4.9756000000      1.4834000000 
  H120          8.7517000000      1.8440000000      2.4387000000 
  H121         10.1235000000      0.9687000000      0.6415000000 
  H122          9.0710000000     -0.4855000000     -1.1737000000 
  H123          2.0641000000     -1.2440000000      5.0285000000 
  H124          1.9277000000      1.0604000000      5.7730000000 
  H125          2.9572000000      2.9209000000      4.3593000000 
  H126         -0.1143000000     -4.6674000000      5.5014000000 
  H127         -2.0395000000     -4.6582000000      3.9467000000 
  H128          0.6352000000     -3.8739000000      0.6500000000 
  H129          2.5362000000     -3.9726000000      2.1901000000 
  H130          2.1900000000     -4.3279000000      4.6217000000 
  H131         -2.8512000000     -4.8844000000      1.7497000000 
  H132         -5.0682000000     -3.8822000000     -2.3649000000 
  H133         -4.9019000000     -2.9765000000     -4.7224000000 
  H134         -2.7631000000     -3.3240000000     -5.9810000000 
  H135         -0.8969000000     -4.5625000000     -4.8714000000 
  H136         -1.4152000000     -1.0395000000      2.0975000000 
  H137         -2.4467000000     -1.0107000000      4.3374000000 
  H138         -4.7582000000     -2.4675000000      4.2790000000 
  H139         -4.9083000000     -3.4881000000      1.7705000000 
  H140         -2.8645000000     -2.2653000000      0.4228000000 
  S141         -0.2899000000     -1.6545000000     -1.3932000000 
  O142         -1.7465000000     -1.4299000000     -1.2709000000 
  C143          0.1438000000     -0.9748000000     -3.0821000000 
  O144          0.1292000000     -3.0774000000     -1.4814000000 
  F145         -0.1739000000      0.3227000000     -3.1580000000 
  F146          1.4517000000     -1.1099000000     -3.3246000000 
  F147         -0.5377000000     -1.6352000000     -4.0313000000 
  H148         -1.1403000000     -4.1953000000     -0.6052000000 
   
  principal moments of inertia:
        amu*angstrom^2:    22461.48636    23963.77608    30739.51072
                g*cm^2: 3.72981710E-36 3.97927814E-36 5.10441521E-36
   
  rotational constants:
               cm^(-1):      0.00075051      0.00070346      0.00054840
                   GHz:      0.02249980      0.02108929      0.01644070
   
  Molecular weight:    1308.28 amu
   
  Stoichiometry: Si2C73PN4H56S2O7F3
  Molecular Point Group: C1      
  Point Group used: C1
  
  nuclear repulsion energy.......   20859.975496621 hartrees
 
 Non-default options chosen:
   SCF calculation type: DFT(m06-2x)                 
   DFT=M06-2X
   Solvation energy will be computed using PBF
     -solute cavity energy will not be included
     -surface area terms will not be included
   Highest accuracy cutoffs used in SCF
   Solvent: other                                                           
   Internal dielectric constant:    1.000
   Continuum dielectric constant:   2.380
   Solvent probe molecule radius:   2.760
  
 Temporary integer options set:
     73=  2
  
  atom       vdw   vdw2    cov     mass  grid  daf  charge   basis
  C1        1.949  1.900  0.770   12.000    Y    Y      Y    6-31g**
  C2        1.949  1.900  0.770   12.000    Y    Y      Y    6-31g**
  C3        1.949  1.900  0.770   12.000    Y    Y      Y    6-31g**
  C4        1.949  1.900  0.770   12.000    Y    Y      Y    6-31g**
  C5        1.949  1.900  0.770   12.000    Y    Y      Y    6-31g**
  C6        1.949  1.900  0.770   12.000    Y    Y      Y    6-31g**
  C7        1.949  1.900  0.770   12.000    Y    Y      Y    6-31g**
  C8        1.949  1.900  0.770   12.000    Y    Y      Y    6-31g**
  C9        1.949  1.900  0.770   12.000    Y    Y      Y    6-31g**
  C10       1.949  1.900  0.770   12.000    Y    Y      Y    6-31g**
  C11       1.949  1.900  0.770   12.000    Y    Y      Y    6-31g**
  O12       1.702  1.600  0.730   15.995    Y    Y      Y    6-31g**
  Si13      2.217  2.147  1.110   27.977    Y    Y      Y    6-31g**
  C14       1.949  1.900  0.770   12.000    Y    Y      Y    6-31g**
  C15       1.949  1.900  0.770   12.000    Y    Y      Y    6-31g**
  C16       1.949  1.900  0.770   12.000    Y    Y      Y    6-31g**
  C17       1.949  1.900  0.770   12.000    Y    Y      Y    6-31g**
  C18       1.949  1.900  0.770   12.000    Y    Y      Y    6-31g**
  C19       1.949  1.900  0.770   12.000    Y    Y      Y    6-31g**
  C20       1.949  1.900  0.770   12.000    Y    Y      Y    6-31g**
  Si21      2.217  2.147  1.110   27.977    Y    Y      Y    6-31g**
  O22       1.702  1.600  0.730   15.995    Y    Y      Y    6-31g**
  C23       1.949  1.900  0.770   12.000    Y    Y      Y    6-31g**
  C24       1.949  1.900  0.770   12.000    Y    Y      Y    6-31g**
  P25       2.147  2.074  1.060   30.974    Y    Y      Y    6-31g**
  O26       1.702  1.600  0.730   15.995    Y    Y      Y    6-31g**
  N27       1.831  1.600  0.750   14.003    Y    Y      Y    6-31g**
  C28       1.949  1.900  0.770   12.000    Y    Y      Y    6-31g**
  C29       1.949  1.900  0.770   12.000    Y    Y      Y    6-31g**
  C30       1.949  1.900  0.770   12.000    Y    Y      Y    6-31g**
  C31       1.949  1.900  0.770   12.000    Y    Y      Y    6-31g**
  C32       1.949  1.900  0.770   12.000    Y    Y      Y    6-31g**
  C33       1.949  1.900  0.770   12.000    Y    Y      Y    6-31g**
  C34       1.949  1.900  0.770   12.000    Y    Y      Y    6-31g**
  C35       1.949  1.900  0.770   12.000    Y    Y      Y    6-31g**
  C36       1.949  1.900  0.770   12.000    Y    Y      Y    6-31g**
  C37       1.949  1.900  0.770   12.000    Y    Y      Y    6-31g**
  C38       1.949  1.900  0.770   12.000    Y    Y      Y    6-31g**
  C39       1.949  1.900  0.770   12.000    Y    Y      Y    6-31g**
  C40       1.949  1.900  0.770   12.000    Y    Y      Y    6-31g**
  C41       1.949  1.900  0.770   12.000    Y    Y      Y    6-31g**
  C42       1.949  1.900  0.770   12.000    Y    Y      Y    6-31g**
  C43       1.949  1.900  0.770   12.000    Y    Y      Y    6-31g**
  C44       1.949  1.900  0.770   12.000    Y    Y      Y    6-31g**
  C45       1.949  1.900  0.770   12.000    Y    Y      Y    6-31g**
  C46       1.949  1.900  0.770   12.000    Y    Y      Y    6-31g**
  C47       1.949  1.900  0.770   12.000    Y    Y      Y    6-31g**
  C48       1.949  1.900  0.770   12.000    Y    Y      Y    6-31g**
  C49       1.949  1.900  0.770   12.000    Y    Y      Y    6-31g**
  C50       1.949  1.900  0.770   12.000    Y    Y      Y    6-31g**
  C51       1.949  1.900  0.770   12.000    Y    Y      Y    6-31g**
  C52       1.949  1.900  0.770   12.000    Y    Y      Y    6-31g**
  C53       1.949  1.900  0.770   12.000    Y    Y      Y    6-31g**
  C54       1.949  1.900  0.770   12.000    Y    Y      Y    6-31g**
  C55       1.949  1.900  0.770   12.000    Y    Y      Y    6-31g**
  C56       1.949  1.900  0.770   12.000    Y    Y      Y    6-31g**
  C57       1.949  1.900  0.770   12.000    Y    Y      Y    6-31g**
  C58       1.949  1.900  0.770   12.000    Y    Y      Y    6-31g**
  C59       1.949  1.900  0.770   12.000    Y    Y      Y    6-31g**
  C60       1.949  1.900  0.770   12.000    Y    Y      Y    6-31g**
  C61       1.949  1.900  0.770   12.000    Y    Y      Y    6-31g**
  C62       1.949  1.900  0.770   12.000    Y    Y      Y    6-31g**
  C63       1.949  1.900  0.770   12.000    Y    Y      Y    6-31g**
  C64       1.949  1.900  0.770   12.000    Y    Y      Y    6-31g**
  C65       1.949  1.900  0.770   12.000    Y    Y      Y    6-31g**
  C66       1.949  1.900  0.770   12.000    Y    Y      Y    6-31g**
  C67       1.949  1.900  0.770   12.000    Y    Y      Y    6-31g**
  C68       1.949  1.900  0.770   12.000    Y    Y      Y    6-31g**
  C69       1.949  1.900  0.770   12.000    Y    Y      Y    6-31g**
  C70       1.949  1.900  0.770   12.000    Y    Y      Y    6-31g**
  N71       1.831  1.600  0.750   14.003    Y    Y      Y    6-31g**
  S72       2.070  1.900  1.020   31.972    Y    Y      Y    6-31g**
  O73       1.702  1.600  0.730   15.995    Y    Y      Y    6-31g**
  O74       1.702  1.600  0.730   15.995    Y    Y      Y    6-31g**
  C75       1.949  1.900  0.770   12.000    Y    Y      Y    6-31g**
  C76       1.949  1.900  0.770   12.000    Y    Y      Y    6-31g**
  C77       1.949  1.900  0.770   12.000    Y    Y      Y    6-31g**
  C78       1.949  1.900  0.770   12.000    Y    Y      Y    6-31g**
  C79       1.949  1.900  0.770   12.000    Y    Y      Y    6-31g**
  N80       1.831  1.600  0.750   14.003    Y    Y      Y    6-31g**
  N81       1.831  1.600  0.750   14.003    Y    Y      Y    6-31g**
  C82       1.949  1.900  0.770   12.000    Y    Y      Y    6-31g**
  C83       1.949  1.900  0.770   12.000    Y    Y      Y    6-31g**
  C84       1.949  1.900  0.770   12.000    Y    Y      Y    6-31g**
  C85       1.949  1.900  0.770   12.000    Y    Y      Y    6-31g**
  H86       1.597  1.150  0.320    1.008    Y    Y      Y    6-31g**
  H87       1.597  1.150  0.320    1.008    Y    Y      Y    6-31g**
  H88       1.597  1.150  0.320    1.008    Y    Y      Y    6-31g**
  H89       1.597  1.150  0.320    1.008    Y    Y      Y    6-31g**
  H90       1.597  1.150  0.320    1.008    Y    Y      Y    6-31g**
  H91       1.597  1.150  0.320    1.008    Y    Y      Y    6-31g**
  H92       1.597  1.150  0.320    1.008    Y    Y      Y    6-31g**
  H93       1.597  1.150  0.320    1.008    Y    Y      Y    6-31g**
  H94       1.597  1.150  0.320    1.008    Y    Y      Y    6-31g**
  H95       1.597  1.150  0.320    1.008    Y    Y      Y    6-31g**
  H96       1.597  1.150  0.320    1.008    Y    Y      Y    6-31g**
  H97       1.597  1.150  0.320    1.008    Y    Y      Y    6-31g**
  H98       1.597  1.150  0.320    1.008    Y    Y      Y    6-31g**
  H99       1.597  1.150  0.320    1.008    Y    Y      Y    6-31g**
  H100      1.597  1.150  0.320    1.008    Y    Y      Y    6-31g**
  H101      1.597  1.150  0.320    1.008    Y    Y      Y    6-31g**
  H102      1.597  1.150  0.320    1.008    Y    Y      Y    6-31g**
  H103      1.597  1.150  0.320    1.008    Y    Y      Y    6-31g**
  H104      1.597  1.150  0.320    1.008    Y    Y      Y    6-31g**
  H105      1.597  1.150  0.320    1.008    Y    Y      Y    6-31g**
  H106      1.597  1.150  0.320    1.008    Y    Y      Y    6-31g**
  H107      1.597  1.150  0.320    1.008    Y    Y      Y    6-31g**
  H108      1.597  1.150  0.320    1.008    Y    Y      Y    6-31g**
  H109      1.597  1.150  0.320    1.008    Y    Y      Y    6-31g**
  H110      1.597  1.150  0.320    1.008    Y    Y      Y    6-31g**
  H111      1.597  1.150  0.320    1.008    Y    Y      Y    6-31g**
  H112      1.597  1.150  0.320    1.008    Y    Y      Y    6-31g**
  H113      1.597  1.150  0.320    1.008    Y    Y      Y    6-31g**
  H114      1.597  1.150  0.320    1.008    Y    Y      Y    6-31g**
  H115      1.597  1.150  0.320    1.008    Y    Y      Y    6-31g**
  H116      1.597  1.150  0.320    1.008    Y    Y      Y    6-31g**
  H117      1.597  1.150  0.320    1.008    Y    Y      Y    6-31g**
  H118      1.597  1.150  0.320    1.008    Y    Y      Y    6-31g**
  H119      1.597  1.150  0.320    1.008    Y    Y      Y    6-31g**
  H120      1.597  1.150  0.320    1.008    Y    Y      Y    6-31g**
  H121      1.597  1.150  0.320    1.008    Y    Y      Y    6-31g**
  H122      1.597  1.150  0.320    1.008    Y    Y      Y    6-31g**
  H123      1.597  1.150  0.320    1.008    Y    Y      Y    6-31g**
  H124      1.597  1.150  0.320    1.008    Y    Y      Y    6-31g**
  H125      1.597  1.150  0.320    1.008    Y    Y      Y    6-31g**
  H126      1.597  1.150  0.320    1.008    Y    Y      Y    6-31g**
  H127      1.597  1.150  0.320    1.008    Y    Y      Y    6-31g**
  H128      1.597  1.150  0.320    1.008    Y    Y      Y    6-31g**
  H129      1.597  1.150  0.320    1.008    Y    Y      Y    6-31g**
  H130      1.597  1.150  0.320    1.008    Y    Y      Y    6-31g**
  H131      1.597  1.150  0.320    1.008    Y    Y      Y    6-31g**
  H132      1.597  1.150  0.320    1.008    Y    Y      Y    6-31g**
  H133      1.597  1.150  0.320    1.008    Y    Y      Y    6-31g**
  H134      1.597  1.150  0.320    1.008    Y    Y      Y    6-31g**
  H135      1.597  1.150  0.320    1.008    Y    Y      Y    6-31g**
  H136      1.597  1.150  0.320    1.008    Y    Y      Y    6-31g**
  H137      1.597  1.150  0.320    1.008    Y    Y      Y    6-31g**
  H138      1.597  1.150  0.320    1.008    Y    Y      Y    6-31g**
  H139      1.597  1.150  0.320    1.008    Y    Y      Y    6-31g**
  H140      1.597  1.150  0.320    1.008    Y    Y      Y    6-31g**
  S141      2.070  1.900  1.020   31.972    Y    Y      Y    6-31g**
  O142      1.702  1.600  0.730   15.995    Y    Y      Y    6-31g**
  C143      1.949  1.900  0.770   12.000    Y    Y      Y    6-31g**
  O144      1.702  1.600  0.730   15.995    Y    Y      Y    6-31g**
  F145      1.736  1.682  0.720   18.998    Y    Y      Y    6-31g**
  F146      1.736  1.682  0.720   18.998    Y    Y      Y    6-31g**
  F147      1.736  1.682  0.720   18.998    Y    Y      Y    6-31g**
  H148      1.597  1.150  0.320    1.008    Y    Y      Y    6-31g**
  
  Peak memory usage:    528 Mb
  
  end of program pre
   
 Time(pre)  user:        0.0  user+sys:        0.0  wallclock:        0.3
  
  start of program onee
  
  smallest eigenvalue of S:    2.277E-04
  number of canonical orbitals.....         1673
  Peak memory usage:    707 Mb
  
  end of program onee
   
 Time(onee)  user:       26.0  user+sys:       27.0  wallclock:       31.7
  
  start of program hfig
  
  initial wavefunction generated automatically from atomic wavefunctions
 
  Irreducible     Total no   No of occupied orbitals 
  representation  orbitals   Shell_1  Shell_2    ...
  No Symm         1673        340
  ------------------------
  Orbital occupation/shell    1.000
 
  Peak memory usage:    646 Mb
  
  end of program hfig
   
 Time(hfig)  user:       36.0  user+sys:       36.0  wallclock:       44.0
  
  start of program probe
  
  Peak memory usage:    640 Mb
  
  end of program probe
   
 Time(probe)  user:       30.0  user+sys:       30.0  wallclock:       33.7
  
  start of program grid
  
  
   grid     grid set  grid #  grid sym
  ------    --------  ------  --------
  coarse        0        0        1
  medium        2        1        1
  fine          0        0        1
  ultrafine     4        2        1
  charge       -1        3        1
  gradient      4        2        1
  density       0        0        1
  DFT-fine    -13        4        1
  DFT-med.    -13        4        1
  DFT-grad    -13        4        1
  DFT-der2      0        0        1
  DFT-cphf      0        0        1
  LMP2-enrg     4        2        1
  LMP2-grad     2        1        1
  DFT-cphf2     0        0        1
  PBF-dens      0        0        1
  plotting      0        0        1
  
   
  number of gridpoints: 
     atom        C1       C2       C3       C4       C5       C6       C7
  grid # 1       97      101       94      102      100       96       93
  grid # 2      338      360      336      366      358      335      336
  grid # 3       32       27       44       47       16       48       25
  grid # 4    48124    48124    48124    48124    48124    48124    48124
   
  number of gridpoints: 
     atom        C8       C9      C10      C11      O12     Si13      C14
  grid # 1       94       97      100      100      111      471      101
  grid # 2      336      355      353      359      432      471      354
  grid # 3       49       15        7        7       25       11        9
  grid # 4    48124    48124    48124    48124    47716    38542    48124
   
  number of gridpoints: 
     atom       C15      C16      C17      C18      C19      C20     Si21
  grid # 1       98      101       96       95       97      101      475
  grid # 2      357      364      335      334      339      362      475
  grid # 3       16       21       19       24       35       19        9
  grid # 4    48124    48124    48124    48124    48124    48124    38542
   
  number of gridpoints: 
     atom       O22      C23      C24      P25      O26      N27      C28
  grid # 1      112       93       94      451      116      110      101
  grid # 2      435      339      339      451      455      405      357
  grid # 3       44       34       39        6       63       27       18
  grid # 4    47716    48124    48124    38640    47716    47928    48124
   
  number of gridpoints: 
     atom       C29      C30      C31      C32      C33      C34      C35
  grid # 1      100       98       99      101       98       93       96
  grid # 2      359      360      356      361      360      336      340
  grid # 3       14       10        7       20       12       28       27
  grid # 4    48124    48124    48124    48124    48124    48124    48124
   
  number of gridpoints: 
     atom       C36      C37      C38      C39      C40      C41      C42
  grid # 1       94       95       92       94       92       94       93
  grid # 2      333      333      333      330      335      333      338
  grid # 3       26       19       18        9       16       13       37
  grid # 4    48124    48124    48124    48124    48124    48124    48124
   
  number of gridpoints: 
     atom       C43      C44      C45      C46      C47      C48      C49
  grid # 1       95       93       94       94       94       94       93
  grid # 2      336      334      328      336      336      336      331
  grid # 3       26       24       13       41       45       43       27
  grid # 4    48124    48124    48124    48124    48124    48124    48124
   
  number of gridpoints: 
     atom       C50      C51      C52      C53      C54      C55      C56
  grid # 1       93       93       93       93       92       93       93
  grid # 2      332      333      333      330      330      331      331
  grid # 3       27       26       28       24       17       23       26
  grid # 4    48124    48124    48124    48124    48124    48124    48124
   
  number of gridpoints: 
     atom       C57      C58      C59      C60      C61      C62      C63
  grid # 1       93       94       94       94       93       93       93
  grid # 2      332      335      336      336      335      333      335
  grid # 3       20       47       49       43       34       34       29
  grid # 4    48124    48124    48124    48124    48124    48124    48124
   
  number of gridpoints: 
     atom       C64      C65      C66      C67      C68      C69      C70
  grid # 1       96       96       99       96       96       96       91
  grid # 2      333      336      360      331      332      332      319
  grid # 3       41       37       30       36       38       35        6
  grid # 4    48124    48124    48124    48124    48124    48124    48124
   
  number of gridpoints: 
     atom       N71      S72      O73      O74      C75      C76      C77
  grid # 1      100      440      123      119       98       96       96
  grid # 2      351      440      519      482      358      329      329
  grid # 3       20       12      364      156       28       33       36
  grid # 4    47928    48492    47716    47716    48124    48124    48124
   
  number of gridpoints: 
     atom       C78      C79      N80      N81      C82      C83      C84
  grid # 1       96       96      113       96       94       93       93
  grid # 2      330      335      417      339      328      326      327
  grid # 3       33       30       92        7       10       12       10
  grid # 4    48124    48124    47928    47928    48124    48124    48124
   
  number of gridpoints: 
     atom       C85      H86      H87      H88      H89      H90      H91
  grid # 1       90      111      118      118      110      118      114
  grid # 2      322      435      451      446      428      453      435
  grid # 3        6      242      420      360      197      425      243
  grid # 4    48124    48426    48426    48426    48426    48426    48426
   
  number of gridpoints: 
     atom       H92      H93      H94      H95      H96      H97      H98
  grid # 1      111      118      118      118      111      111      107
  grid # 2      420      442      449      450      432      433      419
  grid # 3      154      356      410      417      217      237      137
  grid # 4    48426    48426    48426    48426    48426    48426    48426
   
  number of gridpoints: 
     atom       H99     H100     H101     H102     H103     H104     H105
  grid # 1      112      109      112      106      112      111      111
  grid # 2      425      423      428      413      438      428      424
  grid # 3      188      177      222       90      276      222      206
  grid # 4    48426    48426    48426    48426    48426    48426    48426
   
  number of gridpoints: 
     atom      H106     H107     H108     H109     H110     H111     H112
  grid # 1      106      112      118      118      118      113      111
  grid # 2      416      428      452      453      453      436      429
  grid # 3      108      226      419      425      423      230      200
  grid # 4    48426    48426    48426    48426    48426    48426    48426
   
  number of gridpoints: 
     atom      H113     H114     H115     H116     H117     H118     H119
  grid # 1      117      113      117      117      114      117      117
  grid # 2      450      435      451      448      441      452      452
  grid # 3      365      247      376      358      296      408      401
  grid # 4    48426    48426    48426    48426    48426    48426    48426
   
  number of gridpoints: 
     atom      H120     H121     H122     H123     H124     H125     H126
  grid # 1      118      118      118      113      115      117      118
  grid # 2      452      453      453      440      444      450      450
  grid # 3      417      424      421      285      322      376      402
  grid # 4    48426    48426    48426    48426    48426    48426    48426
   
  number of gridpoints: 
     atom      H127     H128     H129     H130     H131     H132     H133
  grid # 1      113      106      108      116      105      111      115
  grid # 2      433      413      416      442      413      435      443
  grid # 3      252      125      121      333      145      245      333
  grid # 4    48426    48426    48426    48426    48426    48426    48426
   
  number of gridpoints: 
     atom      H134     H135     H136     H137     H138     H139     H140
  grid # 1      117      117      101      112      116      110      103
  grid # 2      449      448      406      438      458      437      408
  grid # 3      388      385      110      229      415      250       56
  grid # 4    48426    48426    48426    48426    48426    48426    48426
   
  number of gridpoints: 
     atom      S141     O142     C143     O144     F145     F146     F147
  grid # 1      431      117       91      117      518      523      529
  grid # 2      431      466      319      455      518      523      529
  grid # 3       10       57        7       55      113      155      148
  grid # 4    48492    47716    48124    47716    47062    47062    47062
   
  number of gridpoints: 
     atom      H148    total
  grid # 1      101    18368
  grid # 2      402    57809
  grid # 3       68    19035
  grid # 4    48426  7104526
   
  Peak memory usage:    671 Mb
  
  end of program grid
   
 Time(grid)  user:     1062.0  user+sys:     1067.0  wallclock:     1732.8
  
  start of program rwr
  
  dpptrf failed in rinv with info = 214
  switching to SVD for RwR matrix  71 for grid  2
  Peak memory usage:    661 Mb
  
  end of program rwr
   
 Time(rwr)  user:       65.0  user+sys:       70.0  wallclock:      113.9
  
  start of program scf
  
 number of electrons..........        680
 number of alpha electrons....        340
 number of beta electrons.....        340
 number of orbitals, total....       1673
 number of doubly-occ'd orbs..        340
 number of open shell orbs....          0
 number of occupied orbitals..        340
 number of virtual orbitals...       1333
 number of hamiltonians.......          1
 number of shells.............          1
 SCF type: DFT=M06-2X
  
       i  u  d  i  g                   
       t  p  i  c  r                                 RMS    maximum
       e  d  i  u  i                       energy  density   DIIS  
       r  t  s  t  d       total energy    change  change    error 
  
etot    1  N  N  1  U   -5562.73487196572           3.8E-03  1.0E-01
etot    2  N  Y  1  U   -5535.03747352683 -2.8E+01  1.5E-02  1.2E-01
etot    3  N  Y  1  U   -5345.97808765691 -1.9E+02  1.4E-02  3.3E-01
etot    4  N  Y  1  U   -5571.08377883154  2.3E+02  3.3E-03  8.6E-02
etot    5  N  Y  1  U   -5565.37308669457 -5.7E+00  2.8E-03  8.8E-02
etot    6  N  Y  1  U   -5573.41896218116  8.0E+00  9.9E-04  4.1E-02
etot    7  N  Y  1  U   -5575.43984595387  2.0E+00  3.0E-04  1.1E-02
etot    8  N  Y  1  U   -5575.53736750919  9.8E-02  1.1E-04  3.7E-03
etot    9  N  Y  1  U   -5575.55205553954  1.5E-02  4.0E-05  1.9E-03
etot   10  N  Y  1  U   -5575.55461860117  2.6E-03  1.4E-05  5.9E-04
etot   11  N  Y  1  U   -5575.55493707678  3.2E-04  7.8E-06  3.3E-04
etot   12  N  Y  1  U   -5575.55502957249  9.2E-05  3.5E-06  1.7E-04
etot   13  N  N  1  U   -5575.55505448172  2.5E-05  0.0E+00  0.0E+00
  
  
 Energy components, in hartrees:
   (A)  Nuclear repulsion............   20859.97549662129
   (E)  Total one-electron terms.....  -49247.23055144981
   (F)    Electron-nuclear...........  -54783.22399219101
   (H)    Kinetic....................    5535.99344074119
   (I)  Total two-electron terms.....   22811.70000034680
   (J)    Coulomb....................   23462.95245179804
   (K)    Exchange+Correlation.......    -651.25245145124
   (L)  Electronic energy............  -26435.53055110301  (E+I)
   (M)  -V/T.........................       2.00714625372  (-(A+F+I)/H)
   (N)  Total energy.................   -5575.55505448172  (A+L)
  
 SCFE: SCF energy: DFT(m06-2x)     -5575.55505448172 hartrees   iterations:  13
  
 
 HOMO energy:    -0.25342
 LUMO energy:    -0.06251
 
  Orbital energies (hartrees): 
   -90.17239   -90.15404   -78.20904   -67.00801   -67.00614   -25.29088
   -25.28980   -25.28685   -19.68801   -19.68529   -19.65464   -19.64759
   -19.63022   -19.62653   -19.60381   -14.81854   -14.81360   -14.79201
   -14.73852   -10.80495   -10.65804   -10.63518   -10.62333   -10.62167
   -10.62027   -10.61006   -10.59628   -10.59526   -10.59229   -10.58552
   -10.58093   -10.57759   -10.57233   -10.56877   -10.56875   -10.56863
   -10.56700   -10.56655   -10.56291   -10.56159   -10.56111   -10.56071
   -10.55959   -10.55854   -10.55698   -10.55438   -10.55368   -10.55366
   -10.55342   -10.55319   -10.55270   -10.55266   -10.55238   -10.55215
   -10.55194   -10.55171   -10.55156   -10.55081   -10.55065   -10.55060
   -10.54847   -10.54829   -10.54804   -10.54703   -10.54689   -10.54635
   -10.54629   -10.54524   -10.54417   -10.54342   -10.54330   -10.54261
   -10.54243   -10.54234   -10.54233   -10.54194   -10.54190   -10.54121
   -10.54118   -10.54074   -10.54057   -10.53988   -10.53971   -10.53911
   -10.53910   -10.53720   -10.53380   -10.53297   -10.53010   -10.52665
   -10.52627   -10.52440    -8.48294    -8.46239    -6.98838    -6.40524
    -6.40408    -6.40337    -6.38434    -6.38393    -6.38375    -5.53920
    -5.53695    -5.10695    -5.10576    -5.10430    -3.84904    -3.84871
    -3.84840    -3.84666    -3.84642    -3.84635    -1.45537    -1.36528
    -1.36302    -1.24438    -1.22828    -1.21675    -1.18320    -1.12997
    -1.11081    -1.10139    -1.08790    -1.08613    -1.06193    -0.99071
    -0.98114    -0.96744    -0.96719    -0.94606    -0.94249    -0.94075
    -0.93553    -0.93467    -0.93328    -0.92948    -0.92175    -0.91064
    -0.90265    -0.89748    -0.88989    -0.87660    -0.85349    -0.84798
    -0.84381    -0.84114    -0.84089    -0.83790    -0.83531    -0.83481
    -0.83248    -0.82951    -0.82925    -0.82724    -0.82682    -0.82650
    -0.82486    -0.82479    -0.82148    -0.82135    -0.81822    -0.80428
    -0.80062    -0.76230    -0.75616    -0.74296    -0.72900    -0.71598
    -0.70893    -0.70387    -0.69806    -0.69185    -0.68980    -0.68742
    -0.68371    -0.68318    -0.68223    -0.67927    -0.67783    -0.67606
    -0.67426    -0.67384    -0.67324    -0.67025    -0.66724    -0.66554
    -0.66487    -0.66236    -0.65997    -0.65829    -0.65403    -0.65228
    -0.64957    -0.64383    -0.63685    -0.62524    -0.61124    -0.60763
    -0.60599    -0.60091    -0.59952    -0.58584    -0.58286    -0.58063
    -0.57923    -0.57804    -0.57604    -0.57478    -0.57321    -0.57196
    -0.56321    -0.56080    -0.55947    -0.55688    -0.54936    -0.54686
    -0.54595    -0.54256    -0.53898    -0.53889    -0.53866    -0.53348
    -0.53189    -0.52679    -0.52547    -0.52255    -0.52225    -0.51955
    -0.51791    -0.51479    -0.51377    -0.51313    -0.51067    -0.51063
    -0.50688    -0.50673    -0.50555    -0.50440    -0.49994    -0.49975
    -0.49761    -0.49724    -0.49628    -0.49540    -0.49514    -0.49466
    -0.49419    -0.49222    -0.49174    -0.49076    -0.48807    -0.48692
    -0.48491    -0.48404    -0.48231    -0.48160    -0.47958    -0.47553
    -0.47468    -0.47456    -0.47335    -0.46991    -0.46613    -0.46536
    -0.46363    -0.45399    -0.45189    -0.45080    -0.44806    -0.44582
    -0.44399    -0.44121    -0.43496    -0.43277    -0.43115    -0.42734
    -0.42555    -0.42541    -0.42338    -0.42102    -0.41856    -0.41717
    -0.41639    -0.41571    -0.41271    -0.40946    -0.40681    -0.40229
    -0.40127    -0.39950    -0.39625    -0.39524    -0.39388    -0.39352
    -0.39217    -0.38965    -0.38842    -0.38587    -0.38399    -0.38365
    -0.38255    -0.38127    -0.37860    -0.37632    -0.37424    -0.36796
    -0.36534    -0.35931    -0.35390    -0.35126    -0.34621    -0.34415
    -0.34294    -0.34165    -0.33925    -0.33826    -0.33367    -0.33317
    -0.32923    -0.32691    -0.32335    -0.31521    -0.30952    -0.30343
    -0.30212    -0.30009    -0.29855    -0.29754    -0.29632    -0.29253
    -0.29207    -0.28976    -0.28943    -0.28751    -0.28560    -0.28484
    -0.28398    -0.28297    -0.27310    -0.25342    -0.06251    -0.02130
    -0.01980    -0.00504    -0.00056     0.01005     0.01659     0.01810
     0.02111     0.02253
 
  Peak memory usage:    862 Mb
  
  end of program scf
   
 Time(scf)  user:    33915.0  user+sys:    34081.0  wallclock:    55431.5
  
  start of program ch
  
  gridpoints used for charge fit        16449
    out of a possible maximum of        19035
  
   Electrostatic potential fitting constrained to reproduce
     total charge:                yes
     dipole moment:               no 
     traceless quadrupole moment: no 
     traceless octapole moment:   no 
  
  Atomic charges from electrostatic potential: 
   
 Atom       C1           C2           C3           C4           C5      
 Charge   -0.08907     -0.03983     -0.18293      0.21254      0.06710
   
 Atom       C6           C7           C8           C9           C10     
 Charge   -0.23066     -0.37290     -0.10025     -0.05010     -0.04877
   
 Atom       C11          O12          Si13         C14          C15     
 Charge    0.16296     -0.21828     -0.14852      0.10987      0.04100
   
 Atom       C16          C17          C18          C19          C20     
 Charge    0.30840     -0.20424     -0.49243     -0.27967      0.11963
   
 Atom       Si21         O22          C23          C24          P25     
 Charge   -0.12073     -0.22320     -0.14602     -0.10666      0.94701
   
 Atom       O26          N27          C28          C29          C30     
 Charge   -0.52975     -0.65359      0.19764     -0.00633      0.10474
   
 Atom       C31          C32          C33          C34          C35     
 Charge    0.11321      0.14981      0.09773     -0.18176     -0.19654
   
 Atom       C36          C37          C38          C39          C40     
 Charge   -0.09789     -0.10068     -0.06089     -0.13385     -0.07767
   
 Atom       C41          C42          C43          C44          C45     
 Charge   -0.18290     -0.14234     -0.19633     -0.15865     -0.14783
   
 Atom       C46          C47          C48          C49          C50     
 Charge   -0.13505     -0.14744     -0.12040     -0.12146     -0.09036
   
 Atom       C51          C52          C53          C54          C55     
 Charge   -0.18049     -0.15814     -0.14310     -0.12453     -0.15445
   
 Atom       C56          C57          C58          C59          C60     
 Charge   -0.14691     -0.11976     -0.13271     -0.15160     -0.10932
   
 Atom       C61          C62          C63          C64          C65     
 Charge   -0.13455     -0.11445     -0.13700     -0.13767     -0.16984
   
 Atom       C66          C67          C68          C69          C70     
 Charge    0.05566     -0.23002      0.05560     -0.13739      0.28014
   
 Atom       N71          S72          O73          O74          C75     
 Charge   -0.57277      0.72198     -0.40212     -0.47470      0.48896
   
 Atom       C76          C77          C78          C79          N80     
 Charge   -0.41602      0.18382     -0.43685      0.41955     -0.57326
   
 Atom       N81          C82          C83          C84          C85     
 Charge   -0.12617     -0.03028     -0.26168     -0.25487      0.28141
   
 Atom       H86          H87          H88          H89          H90     
 Charge    0.09852      0.14825      0.14408      0.18123      0.13151
   
 Atom       H91          H92          H93          H94          H95     
 Charge    0.13512      0.21743      0.15864      0.14156      0.13079
   
 Atom       H96          H97          H98          H99          H100    
 Charge    0.12634      0.11144      0.10965      0.12879      0.09203
   
 Atom       H101         H102         H103         H104         H105    
 Charge    0.11558      0.10956      0.12297      0.09684      0.12384
   
 Atom       H106         H107         H108         H109         H110    
 Charge    0.13108      0.13520      0.13325      0.13414      0.13287
   
 Atom       H111         H112         H113         H114         H115    
 Charge    0.09443      0.10753      0.13538      0.13835      0.12619
   
 Atom       H116         H117         H118         H119         H120    
 Charge    0.11484      0.14305      0.13381      0.12894      0.13201
   
 Atom       H121         H122         H123         H124         H125    
 Charge    0.13330      0.12713      0.11193      0.11932      0.12348
   
 Atom       H126         H127         H128         H129         H130    
 Charge    0.14115      0.10902      0.17264      0.03869      0.13145
   
 Atom       H131         H132         H133         H134         H135    
 Charge    0.10342      0.19979      0.10070      0.19432      0.05644
   
 Atom       H136         H137         H138         H139         H140    
 Charge    0.24050      0.17138      0.19091      0.20850      0.01472
   
 Atom       S141         O142         C143         O144         F145    
 Charge    0.81330     -0.47413      0.43218     -0.50622     -0.13010
   
 Atom       F146         F147         H148    
 Charge   -0.14194     -0.15664      0.37739
  
  sum of atomic charges:     0.000000
   
 RMS Error   1.01E-03 hartrees
 
  Peak memory usage:    589 Mb
  
  end of program ch
   
 Time(ch)  user:       19.0  user+sys:       20.0  wallclock:       28.0
  
  start of program post
  
  Writing input files for PBF
  Peak memory usage:    536 Mb
  
  end of program post
   
 Time(post)  user:        0.0  user+sys:        0.0  wallclock:        0.4

  start of program pbf

Pbf Version 4.00

Molecular surface area:      820.54892   [A2]
Reaction field energy:       -17.53853   [kT]
  Peak memory usage: 561 Mb

  end of program pbf

 Time(pbf)  user:        7.5  user+sys:        7.6  wallclock:       15.1
  
  start of program solv
  
   number of surface charges from PBF   13760
   sum of surface charges     -0.00020
   
  nuclear repulsion energy.......   20859.975496621 hartrees
  Peak memory usage:    701 Mb
  
  end of program solv
   
 Time(solv)  user:       40.0  user+sys:       40.0  wallclock:       64.2
  
  start of program scf
  
  
       i  u  d  i  g                   
       t  p  i  c  r                                 RMS    maximum
       e  d  i  u  i                       energy  density   DIIS  
       r  t  s  t  d       total energy    change  change    error 
  
etot    1  N  N  1  U   -5575.59169796719           5.7E-05  1.2E-03
etot    2  N  Y  1  U   -5575.59247372432  7.8E-04  1.9E-05  1.0E-03
etot    3  N  Y  1  U   -5575.59286864583  3.9E-04  5.9E-06  4.6E-04
etot    4  N  Y  1  U   -5575.59292681352  5.8E-05  2.5E-06  1.3E-04
etot    5  N  N  1  U   -5575.59293361011  6.8E-06  0.0E+00  0.0E+00
  
  
 Energy components, in hartrees:
   (A)  Total zero-electron terms....   20862.16104453095
   (B)    Nuclear-nuclear............   20859.97549662129
   (C)    Nuclear-solvent............       2.18554790965
   (E)  Total one-electron terms.....  -49250.73341851558
   (F)    Electron-nuclear...........  -54784.55454510998
   (G)    Electron-solvent...........      -2.22462797245
   (H)    Kinetic....................    5536.04575456685
   (I)  Total two-electron terms.....   22812.97944037452
   (J)    Coulomb....................   23464.25332231761
   (K)    Exchange+Correlation.......    -651.27388194309
   (L)  Electronic energy............  -26437.75397814106  (E+I)
   (N)  Total quantum mech. energy...   -5575.59293361011  (A+L)
   (O)  Gas phase energy.............   -5575.55505448172
   (P)  Solution phase energy........   -5575.57339357872  (Q+R+S)
   (Q)    Total solute energy........   -5575.55385354732  (N-C-G)
   (R)    Total solvent energy.......      -0.01954003140  (C/2+G/2)
   (S)    Solute cavity energy.......       0.00000000000
   (U)  Reorganization energy........       0.00120093440  (Q-O)
   (V)  Solvation energy.............      -0.01833909700  (P-O)
  
 SCFE:  Solution phase energy: DFT(m06-2x)      -5575.57339357872 hartrees
        SCF iterations:   5
  
 
 HOMO energy:    -0.25495
 LUMO energy:    -0.06260
 
  Orbital energies (hartrees): 
   -90.17956   -90.15648   -78.21074   -67.00970   -67.00838   -25.29328
   -25.29298   -25.28950   -19.68972   -19.68695   -19.65994   -19.65552
   -19.63338   -19.62856   -19.60467   -14.81807   -14.81802   -14.79242
   -14.74081   -10.80752   -10.65887   -10.63605   -10.62511   -10.62387
   -10.61986   -10.60780   -10.59762   -10.59180   -10.59064   -10.58180
   -10.57995   -10.57808   -10.57294   -10.57012   -10.57007   -10.56810
   -10.56646   -10.56595   -10.56347   -10.56252   -10.56074   -10.55994
   -10.55988   -10.55912   -10.55713   -10.55413   -10.55393   -10.55346
   -10.55346   -10.55342   -10.55329   -10.55264   -10.55253   -10.55237
   -10.55212   -10.55185   -10.55179   -10.55120   -10.55112   -10.55078
   -10.54978   -10.54969   -10.54882   -10.54874   -10.54871   -10.54852
   -10.54820   -10.54708   -10.54607   -10.54509   -10.54456   -10.54426
   -10.54391   -10.54378   -10.54371   -10.54332   -10.54312   -10.54312
   -10.54242   -10.54222   -10.54188   -10.54188   -10.54171   -10.54143
   -10.54097   -10.53924   -10.53508   -10.53435   -10.53256   -10.52854
   -10.52835   -10.52656    -8.48997    -8.46480    -6.99007    -6.41224
    -6.41119    -6.41039    -6.38674    -6.38635    -6.38617    -5.54088
    -5.53918    -5.10864    -5.10745    -5.10598    -3.85073    -3.85039
    -3.85009    -3.84890    -3.84866    -3.84860    -1.45816    -1.36812
    -1.36574    -1.25165    -1.23014    -1.21906    -1.18496    -1.13785
    -1.11069    -1.10385    -1.08901    -1.08631    -1.06523    -0.99275
    -0.98251    -0.96835    -0.96737    -0.94717    -0.94383    -0.94329
    -0.93767    -0.93650    -0.93520    -0.92716    -0.92276    -0.91175
    -0.90278    -0.89651    -0.89125    -0.87636    -0.85438    -0.84751
    -0.84500    -0.84288    -0.84044    -0.83868    -0.83713    -0.83591
    -0.83476    -0.83095    -0.83059    -0.82893    -0.82846    -0.82802
    -0.82689    -0.82577    -0.82339    -0.82309    -0.82013    -0.80559
    -0.80178    -0.76416    -0.75652    -0.74085    -0.73082    -0.71712
    -0.71040    -0.70480    -0.69921    -0.69175    -0.69106    -0.68656
    -0.68528    -0.68414    -0.68305    -0.68206    -0.67938    -0.67708
    -0.67599    -0.67489    -0.67428    -0.66926    -0.66833    -0.66704
    -0.66649    -0.66330    -0.66106    -0.65999    -0.65582    -0.65266
    -0.65063    -0.64388    -0.63815    -0.62638    -0.61104    -0.60877
    -0.60815    -0.60231    -0.60027    -0.58792    -0.58355    -0.58158
    -0.58096    -0.57887    -0.57675    -0.57563    -0.57321    -0.57279
    -0.56513    -0.56177    -0.56069    -0.55951    -0.55119    -0.55033
    -0.54770    -0.54420    -0.53986    -0.53962    -0.53718    -0.53421
    -0.53331    -0.52781    -0.52667    -0.52484    -0.52211    -0.52044
    -0.51931    -0.51581    -0.51494    -0.51439    -0.51214    -0.51084
    -0.50798    -0.50692    -0.50655    -0.50513    -0.50261    -0.50071
    -0.49973    -0.49759    -0.49709    -0.49595    -0.49581    -0.49533
    -0.49313    -0.49254    -0.49232    -0.49114    -0.48871    -0.48729
    -0.48511    -0.48466    -0.48310    -0.48251    -0.48093    -0.47676
    -0.47602    -0.47469    -0.47295    -0.47032    -0.46647    -0.46465
    -0.46316    -0.45525    -0.45288    -0.45206    -0.44930    -0.44714
    -0.44443    -0.44274    -0.43677    -0.43507    -0.43309    -0.43145
    -0.42800    -0.42692    -0.42508    -0.42330    -0.41958    -0.41911
    -0.41864    -0.41727    -0.41424    -0.41120    -0.40899    -0.40591
    -0.40188    -0.40101    -0.39904    -0.39662    -0.39579    -0.39423
    -0.39285    -0.39108    -0.38990    -0.38944    -0.38623    -0.38538
    -0.38488    -0.38280    -0.37999    -0.37845    -0.37573    -0.36942
    -0.36470    -0.36127    -0.35554    -0.35296    -0.34810    -0.34572
    -0.34391    -0.34184    -0.34061    -0.33963    -0.33559    -0.33218
    -0.33081    -0.32881    -0.32498    -0.31660    -0.30969    -0.30493
    -0.30452    -0.30289    -0.30063    -0.29994    -0.29735    -0.29493
    -0.29389    -0.29191    -0.29111    -0.28983    -0.28775    -0.28682
    -0.28609    -0.28358    -0.27450    -0.25495    -0.06260    -0.02136
    -0.02096    -0.00327    -0.00194     0.00828     0.01474     0.01723
     0.01989     0.02174
 
  Peak memory usage:    859 Mb
  
  end of program scf
   
 Time(scf)  user:    10292.0  user+sys:    10345.0  wallclock:    15152.8
  
  start of program sole
  
    SCRF                   solvation energy
  iteration          Hartrees            kcal/mol
     0               0.0000000            0.0000
     1              -0.0183391          -11.5080
  
  solvation energy not yet converged... 
  
  Peak memory usage:    635 Mb
  
  end of program sole
   
 Time(sole)  user:        0.0  user+sys:        0.0  wallclock:        0.3
  
  start of program ch
  
  gridpoints used for charge fit        16449
    out of a possible maximum of        16449
  
   Electrostatic potential fitting constrained to reproduce
     total charge:                yes
     dipole moment:               no 
     traceless quadrupole moment: no 
     traceless octapole moment:   no 
  
  Atomic charges from electrostatic potential: 
   
 Atom       C1           C2           C3           C4           C5      
 Charge   -0.08962     -0.04327     -0.19299      0.21746      0.06983
   
 Atom       C6           C7           C8           C9           C10     
 Charge   -0.24229     -0.39620     -0.10479     -0.06492     -0.04428
   
 Atom       C11          O12          Si13         C14          C15     
 Charge    0.18849     -0.20709     -0.16719      0.10881      0.02496
   
 Atom       C16          C17          C18          C19          C20     
 Charge    0.31753     -0.20784     -0.51282     -0.29100      0.13675
   
 Atom       Si21         O22          C23          C24          P25     
 Charge   -0.13891     -0.20811     -0.15244     -0.11142      0.91757
   
 Atom       O26          N27          C28          C29          C30     
 Charge   -0.50790     -0.63766      0.20294     -0.00447      0.11384
   
 Atom       C31          C32          C33          C34          C35     
 Charge    0.13014      0.14981      0.10146     -0.19047     -0.20554
   
 Atom       C36          C37          C38          C39          C40     
 Charge   -0.10390     -0.10759     -0.07223     -0.13930     -0.09239
   
 Atom       C41          C42          C43          C44          C45     
 Charge   -0.19410     -0.14334     -0.19794     -0.16868     -0.15059
   
 Atom       C46          C47          C48          C49          C50     
 Charge   -0.14042     -0.15695     -0.12490     -0.12711     -0.09991
   
 Atom       C51          C52          C53          C54          C55     
 Charge   -0.18438     -0.16528     -0.15142     -0.12724     -0.15418
   
 Atom       C56          C57          C58          C59          C60     
 Charge   -0.15844     -0.12404     -0.14233     -0.15866     -0.11792
   
 Atom       C61          C62          C63          C64          C65     
 Charge   -0.14294     -0.12188     -0.14282     -0.13612     -0.18198
   
 Atom       C66          C67          C68          C69          C70     
 Charge    0.06288     -0.24190      0.05501     -0.14632      0.26365
   
 Atom       N71          S72          O73          O74          C75     
 Charge   -0.57110      0.74523     -0.43388     -0.49198      0.49776
   
 Atom       C76          C77          C78          C79          N80     
 Charge   -0.42699      0.19256     -0.44059      0.43270     -0.60464
   
 Atom       N81          C82          C83          C84          C85     
 Charge   -0.11405     -0.03259     -0.26326     -0.27099      0.32348
   
 Atom       H86          H87          H88          H89          H90     
 Charge    0.09958      0.15750      0.15171      0.19005      0.14023
   
 Atom       H91          H92          H93          H94          H95     
 Charge    0.13770      0.22366      0.16675      0.14981      0.13867
   
 Atom       H96          H97          H98          H99          H100    
 Charge    0.13127      0.11423      0.11064      0.13369      0.09330
   
 Atom       H101         H102         H103         H104         H105    
 Charge    0.11988      0.11403      0.12713      0.09691      0.12633
   
 Atom       H106         H107         H108         H109         H110    
 Charge    0.13823      0.13918      0.14129      0.14277      0.14065
   
 Atom       H111         H112         H113         H114         H115    
 Charge    0.09845      0.11512      0.14100      0.14521      0.13506
   
 Atom       H116         H117         H118         H119         H120    
 Charge    0.12183      0.14438      0.14231      0.13727      0.14079
   
 Atom       H121         H122         H123         H124         H125    
 Charge    0.14146      0.13565      0.11915      0.12619      0.12968
   
 Atom       H126         H127         H128         H129         H130    
 Charge    0.14870      0.11705      0.17529      0.04108      0.13731
   
 Atom       H131         H132         H133         H134         H135    
 Charge    0.11315      0.20727      0.10981      0.20327      0.06140
   
 Atom       H136         H137         H138         H139         H140    
 Charge    0.22253      0.17947      0.20082      0.21589     -0.00184
   
 Atom       S141         O142         C143         O144         F145    
 Charge    0.79597     -0.46035      0.43460     -0.50447     -0.13014
   
 Atom       F146         F147         H148    
 Charge   -0.14380     -0.15805      0.37192
  
  sum of atomic charges:     0.000000
   
 RMS Error   1.02E-03 hartrees
 
  Peak memory usage:    588 Mb
  
  end of program ch
   
 Time(ch)  user:       20.0  user+sys:       21.0  wallclock:       38.7
  
  start of program post
  
  Writing input files for PBF
  Peak memory usage:    536 Mb
  
  end of program post
   
 Time(post)  user:        0.0  user+sys:        0.0  wallclock:        0.4

  start of program pbf

Pbf Version 4.00

Molecular surface area:      820.54892   [A2]
Reaction field energy:       -20.36467   [kT]
  Peak memory usage: 560 Mb

  end of program pbf

 Time(pbf)  user:        7.7  user+sys:        7.8  wallclock:       11.5
  
  start of program solv
  
   number of surface charges from PBF   13760
   sum of surface charges     -0.00022
   
  nuclear repulsion energy.......   20859.975496621 hartrees
  Peak memory usage:    701 Mb
  
  end of program solv
   
 Time(solv)  user:       40.0  user+sys:       40.0  wallclock:       50.9
  
  start of program scf
  
  
       i  u  d  i  g                   
       t  p  i  c  r                                 RMS    maximum
       e  d  i  u  i                       energy  density   DIIS  
       r  t  s  t  d       total energy    change  change    error 
  
etot    1  N  N  1  U   -5575.59589851912           7.0E-06  1.8E-04
etot    2  N  N  1  U   -5575.59590144658  2.9E-06  0.0E+00  0.0E+00
  
  
 Energy components, in hartrees:
   (A)  Total zero-electron terms....   20862.38186598522
   (B)    Nuclear-nuclear............   20859.97549662129
   (C)    Nuclear-solvent............       2.40636936393
   (E)  Total one-electron terms.....  -49251.24713141397
   (F)    Electron-nuclear...........  -54784.85508718449
   (G)    Electron-solvent...........      -2.44881634468
   (H)    Kinetic....................    5536.05677211521
   (I)  Total two-electron terms.....   22813.26936398217
   (J)    Coulomb....................   23464.54550895066
   (K)    Exchange+Correlation.......    -651.27614496849
   (L)  Electronic energy............  -26437.97776743180  (E+I)
   (N)  Total quantum mech. energy...   -5575.59590144658  (A+L)
   (O)  Gas phase energy.............   -5575.55505448172
   (P)  Solution phase energy........   -5575.57467795621  (Q+R+S)
   (Q)    Total solute energy........   -5575.55345446583  (N-C-G)
   (R)    Total solvent energy.......      -0.02122349038  (C/2+G/2)
   (S)    Solute cavity energy.......       0.00000000000
   (U)  Reorganization energy........       0.00160001589  (Q-O)
   (V)  Solvation energy.............      -0.01962347449  (P-O)
  
 SCFE:  Solution phase energy: DFT(m06-2x)      -5575.57467795621 hartrees
        SCF iterations:   2
  
 
 HOMO energy:    -0.28424
 LUMO energy:    -0.06227
 
  Orbital energies (hartrees): 
   -49.27571   -43.66355   -40.57750   -38.72687   -37.11791   -30.31470
   -30.06952   -27.54925   -26.76437   -24.64647   -24.30702   -23.97147
   -23.57337   -23.39574   -22.55066   -21.70925   -20.22923   -19.58893
   -19.31537   -19.13384   -17.67865   -17.65145   -17.31358   -17.26119
   -16.45029   -16.36975   -14.88006   -14.17866   -13.73110   -13.44411
   -12.58630   -12.38717   -12.34343   -12.03288   -11.94990   -11.93450
   -11.87992   -11.80019   -11.74135   -11.60640   -11.47273   -11.15847
   -11.13805   -11.05883   -10.99704   -10.98846   -10.97619   -10.93861
   -10.92177   -10.86520   -10.76844   -10.74357   -10.74156   -10.69551
   -10.68092   -10.67706   -10.66590   -10.65841   -10.62583   -10.60834
   -10.60112   -10.58721   -10.55265   -10.54076   -10.51802   -10.50773
   -10.49444   -10.46083   -10.42941   -10.40035   -10.36731   -10.35419
   -10.32336   -10.27484   -10.27459   -10.24333   -10.22116   -10.19425
   -10.19061   -10.14902   -10.14056   -10.12552    -9.98636    -9.92403
    -9.89140    -9.80893    -9.67647    -9.52482    -9.52317    -9.47053
    -9.43389    -9.43295    -9.38537    -9.35990    -9.32926    -9.06567
    -8.97454    -8.88791    -8.85238    -8.71677    -8.68992    -8.06942
    -8.06724    -7.96587    -7.54415    -7.11841    -6.89607    -6.73662
    -6.66438    -6.53094    -6.47458    -5.74813    -1.41620    -1.38409
    -1.31258    -1.23408    -1.18372    -1.17746    -1.07550    -1.06205
    -1.00042    -0.98864    -0.93330    -0.93105    -0.92516    -0.92513
    -0.92482    -0.92190    -0.91874    -0.90783    -0.90172    -0.90165
    -0.87087    -0.87007    -0.85611    -0.85480    -0.84611    -0.84248
    -0.83238    -0.81357    -0.81201    -0.80502    -0.80309    -0.80078
    -0.79319    -0.79160    -0.78742    -0.78704    -0.78106    -0.77921
    -0.77517    -0.77182    -0.77122    -0.77114    -0.77114    -0.76977
    -0.76112    -0.75881    -0.75747    -0.74951    -0.74749    -0.74666
    -0.74630    -0.74049    -0.74024    -0.73291    -0.73197    -0.72598
    -0.72288    -0.71302    -0.71053    -0.70586    -0.69931    -0.69798
    -0.69644    -0.69455    -0.68665    -0.68262    -0.67979    -0.67862
    -0.67419    -0.66070    -0.65320    -0.65125    -0.64972    -0.64329
    -0.64202    -0.63938    -0.63917    -0.63754    -0.63016    -0.62921
    -0.62857    -0.62776    -0.62760    -0.62650    -0.62562    -0.62020
    -0.61550    -0.61405    -0.61183    -0.61125    -0.61096    -0.60598
    -0.60186    -0.59957    -0.59871    -0.59791    -0.59621    -0.59559
    -0.59387    -0.59270    -0.59017    -0.58330    -0.57963    -0.57793
    -0.57582    -0.57298    -0.57212    -0.57139    -0.57121    -0.57080
    -0.56781    -0.56558    -0.56433    -0.56095    -0.56062    -0.55855
    -0.55079    -0.54937    -0.54749    -0.54651    -0.54571    -0.54545
    -0.54411    -0.54291    -0.53999    -0.53982    -0.53762    -0.53542
    -0.53253    -0.52816    -0.52428    -0.52330    -0.51561    -0.51422
    -0.51041    -0.50902    -0.50707    -0.50671    -0.50508    -0.50488
    -0.50482    -0.50205    -0.50197    -0.50177    -0.49836    -0.49529
    -0.49209    -0.48925    -0.48354    -0.48073    -0.48068    -0.48035
    -0.48017    -0.47723    -0.47649    -0.47528    -0.47318    -0.47231
    -0.47191    -0.47104    -0.47084    -0.47080    -0.47043    -0.46955
    -0.46752    -0.46566    -0.46540    -0.46517    -0.46255    -0.46238
    -0.45885    -0.45836    -0.45646    -0.45579    -0.45509    -0.45232
    -0.44960    -0.44955    -0.44872    -0.44638    -0.44482    -0.44462
    -0.44459    -0.44059    -0.43991    -0.43830    -0.43706    -0.43615
    -0.43512    -0.43273    -0.43129    -0.43087    -0.42617    -0.42413
    -0.42238    -0.42227    -0.42210    -0.41802    -0.41571    -0.41347
    -0.41169    -0.40916    -0.39964    -0.38949    -0.38526    -0.37793
    -0.37692    -0.37500    -0.37146    -0.35097    -0.34793    -0.34775
    -0.33786    -0.33119    -0.32779    -0.32759    -0.32590    -0.32560
    -0.32506    -0.32292    -0.32218    -0.31571    -0.31290    -0.30824
    -0.30154    -0.30115    -0.28645    -0.28424    -0.06227    -0.02130
    -0.02065    -0.00303    -0.00200     0.00836     0.01471     0.01726
     0.01999     0.02181
 
  Peak memory usage:    859 Mb
  
  end of program scf
   
 Time(scf)  user:     2692.0  user+sys:     2705.0  wallclock:     4118.8
  
  start of program sole
  
    SCRF                   solvation energy
  iteration          Hartrees            kcal/mol
     0               0.0000000            0.0000
     1              -0.0183391          -11.5080
     2              -0.0196235          -12.3139
  
  solvation energy not yet converged... 
  
  Peak memory usage:    635 Mb
  
  end of program sole
   
 Time(sole)  user:        0.0  user+sys:        0.0  wallclock:        0.4
  
  start of program ch
  
  gridpoints used for charge fit        16449
    out of a possible maximum of        16449
  
   Electrostatic potential fitting constrained to reproduce
     total charge:                yes
     dipole moment:               no 
     traceless quadrupole moment: no 
     traceless octapole moment:   no 
  
  Atomic charges from electrostatic potential: 
   
 Atom       C1           C2           C3           C4           C5      
 Charge   -0.08983     -0.04314     -0.19324      0.21747      0.06935
   
 Atom       C6           C7           C8           C9           C10     
 Charge   -0.24328     -0.39788     -0.10463     -0.06523     -0.04305
   
 Atom       C11          O12          Si13         C14          C15     
 Charge    0.18973     -0.20623     -0.16887      0.10882      0.02289
   
 Atom       C16          C17          C18          C19          C20     
 Charge    0.31832     -0.20790     -0.51488     -0.29238      0.13736
   
 Atom       Si21         O22          C23          C24          P25     
 Charge   -0.14075     -0.20647     -0.15229     -0.11052      0.91391
   
 Atom       O26          N27          C28          C29          C30     
 Charge   -0.50518     -0.63643      0.20282     -0.00409      0.11409
   
 Atom       C31          C32          C33          C34          C35     
 Charge    0.13127      0.14927      0.10107     -0.19099     -0.20661
   
 Atom       C36          C37          C38          C39          C40     
 Charge   -0.10523     -0.10891     -0.07371     -0.14005     -0.09382
   
 Atom       C41          C42          C43          C44          C45     
 Charge   -0.19507     -0.14332     -0.19829     -0.16986     -0.15127
   
 Atom       C46          C47          C48          C49          C50     
 Charge   -0.14070     -0.15715     -0.12479     -0.12720     -0.10015
   
 Atom       C51          C52          C53          C54          C55     
 Charge   -0.18401     -0.16640     -0.15125     -0.12669     -0.15427
   
 Atom       C56          C57          C58          C59          C60     
 Charge   -0.15913     -0.12324     -0.14292     -0.15838     -0.11811
   
 Atom       C61          C62          C63          C64          C65     
 Charge   -0.14380     -0.12162     -0.14248     -0.13423     -0.18212
   
 Atom       C66          C67          C68          C69          C70     
 Charge    0.06089     -0.24333      0.05514     -0.14681      0.26059
   
 Atom       N71          S72          O73          O74          C75     
 Charge   -0.57164      0.74395     -0.43775     -0.49003      0.49648
   
 Atom       C76          C77          C78          C79          N80     
 Charge   -0.42685      0.19510     -0.43851      0.43242     -0.60938
   
 Atom       N81          C82          C83          C84          C85     
 Charge   -0.11318     -0.03069     -0.26162     -0.27226      0.32735
   
 Atom       H86          H87          H88          H89          H90     
 Charge    0.09942      0.15816      0.15217      0.19056      0.14096
   
 Atom       H91          H92          H93          H94          H95     
 Charge    0.13768      0.22402      0.16727      0.15040      0.13921
   
 Atom       H96          H97          H98          H99          H100    
 Charge    0.13138      0.11431      0.11094      0.13396      0.09321
   
 Atom       H101         H102         H103         H104         H105    
 Charge    0.12017      0.11415      0.12728      0.09661      0.12628
   
 Atom       H106         H107         H108         H109         H110    
 Charge    0.13919      0.13935      0.14191      0.14344      0.14122
   
 Atom       H111         H112         H113         H114         H115    
 Charge    0.09875      0.11581      0.14144      0.14584      0.13594
   
 Atom       H116         H117         H118         H119         H120    
 Charge    0.12263      0.14412      0.14291      0.13789      0.14146
   
 Atom       H121         H122         H123         H124         H125    
 Charge    0.14206      0.13633      0.12011      0.12671      0.13004
   
 Atom       H126         H127         H128         H129         H130    
 Charge    0.14935      0.11800      0.17468      0.04083      0.13752
   
 Atom       H131         H132         H133         H134         H135    
 Charge    0.11407      0.20783      0.11082      0.20413      0.06197
   
 Atom       H136         H137         H138         H139         H140    
 Charge    0.22044      0.18002      0.20173      0.21646     -0.00337
   
 Atom       S141         O142         C143         O144         F145    
 Charge    0.79433     -0.45758      0.43452     -0.50504     -0.12977
   
 Atom       F146         F147         H148    
 Charge   -0.14399     -0.15779      0.37134
  
  sum of atomic charges:     0.000000
   
 RMS Error   1.02E-03 hartrees
 
  Peak memory usage:    588 Mb
  
  end of program ch
   
 Time(ch)  user:       20.0  user+sys:       21.0  wallclock:       42.1
  
  start of program post
  
  Writing input files for PBF
  Peak memory usage:    536 Mb
  
  end of program post
   
 Time(post)  user:        0.0  user+sys:        0.0  wallclock:        0.4

  start of program pbf

Pbf Version 4.00

Molecular surface area:      820.54892   [A2]
Reaction field energy:       -20.79613   [kT]
  Peak memory usage: 560 Mb

  end of program pbf

 Time(pbf)  user:        7.4  user+sys:        7.5  wallclock:       13.8
  
  start of program solv
  
   number of surface charges from PBF   13760
   sum of surface charges     -0.00023
   
  nuclear repulsion energy.......   20859.975496621 hartrees
  Peak memory usage:    701 Mb
  
  end of program solv
   
 Time(solv)  user:       39.0  user+sys:       39.0  wallclock:       40.9
  
  start of program scf
  
  
       i  u  d  i  g                   
       t  p  i  c  r                                 RMS    maximum
       e  d  i  u  i                       energy  density   DIIS  
       r  t  s  t  d       total energy    change  change    error 
  
etot    1  N  N  1  U   -5575.59632216057           6.1E-06  1.7E-04
etot    2  N  N  1  U   -5575.59630198622 -2.0E-05  0.0E+00  0.0E+00
  
  
 Energy components, in hartrees:
   (A)  Total zero-electron terms....   20862.42449301388
   (B)    Nuclear-nuclear............   20859.97549662129
   (C)    Nuclear-solvent............       2.44899639259
   (E)  Total one-electron terms.....  -49251.01269202808
   (F)    Electron-nuclear...........  -54784.56118515121
   (G)    Electron-solvent...........      -2.49166629100
   (H)    Kinetic....................    5536.04015941412
   (I)  Total two-electron terms.....   22812.99189702798
   (J)    Coulomb....................   23464.26630914654
   (K)    Exchange+Correlation.......    -651.27441211857
   (L)  Electronic energy............  -26438.02079500011  (E+I)
   (N)  Total quantum mech. energy...   -5575.59630198622  (A+L)
   (O)  Gas phase energy.............   -5575.55505448172
   (P)  Solution phase energy........   -5575.57496703702  (Q+R+S)
   (Q)    Total solute energy........   -5575.55363208782  (N-C-G)
   (R)    Total solvent energy.......      -0.02133494920  (C/2+G/2)
   (S)    Solute cavity energy.......       0.00000000000
   (U)  Reorganization energy........       0.00142239390  (Q-O)
   (V)  Solvation energy.............      -0.01991255531  (P-O)
  
 SCFE:  Solution phase energy: DFT(m06-2x)      -5575.57496703702 hartrees
        SCF iterations:   2
  
 
 HOMO energy:    -0.25532
 LUMO energy:    -0.06270
 
  Orbital energies (hartrees): 
   -90.18150   -90.15724   -78.21121   -67.01014   -67.00944   -25.29381
   -25.29327   -25.28950   -19.69043   -19.68704   -19.65967   -19.65813
   -19.63575   -19.62749   -19.60453   -14.82095   -14.81836   -14.79576
   -14.74205   -10.80789   -10.66050   -10.63794   -10.62546   -10.62478
   -10.61810   -10.60818   -10.59770   -10.58998   -10.58975   -10.58023
   -10.57940   -10.57897   -10.57334   -10.57034   -10.57024   -10.56836
   -10.56534   -10.56451   -10.56402   -10.56299   -10.56129   -10.56101
   -10.55902   -10.55881   -10.55850   -10.55443   -10.55420   -10.55417
   -10.55387   -10.55352   -10.55319   -10.55254   -10.55219   -10.55214
   -10.55172   -10.55170   -10.55147   -10.55128   -10.55044   -10.55038
   -10.54991   -10.54979   -10.54945   -10.54922   -10.54896   -10.54889
   -10.54812   -10.54742   -10.54632   -10.54560   -10.54434   -10.54433
   -10.54410   -10.54386   -10.54368   -10.54364   -10.54360   -10.54352
   -10.54328   -10.54275   -10.54238   -10.54232   -10.54204   -10.54197
   -10.54109   -10.54047   -10.53580   -10.53478   -10.53376   -10.52949
   -10.52909   -10.52765    -8.49188    -8.46556    -6.99054    -6.41414
    -6.41311    -6.41230    -6.38749    -6.38711    -6.38692    -5.54132
    -5.54024    -5.10911    -5.10793    -5.10645    -3.85116    -3.85082
    -3.85052    -3.84995    -3.84971    -3.84965    -1.45850    -1.36855
    -1.36596    -1.25326    -1.23067    -1.21976    -1.18539    -1.13944
    -1.11034    -1.10455    -1.08918    -1.08776    -1.06701    -0.99349
    -0.98293    -0.96872    -0.96776    -0.94723    -0.94385    -0.94377
    -0.93835    -0.93650    -0.93566    -0.92665    -0.92297    -0.91205
    -0.90328    -0.89590    -0.89172    -0.87677    -0.85464    -0.84774
    -0.84516    -0.84335    -0.83999    -0.83872    -0.83744    -0.83593
    -0.83525    -0.83146    -0.83063    -0.82934    -0.82867    -0.82834
    -0.82738    -0.82597    -0.82394    -0.82310    -0.82077    -0.80628
    -0.80213    -0.76468    -0.75711    -0.74096    -0.73125    -0.71789
    -0.71086    -0.70505    -0.69950    -0.69210    -0.69144    -0.68625
    -0.68560    -0.68461    -0.68311    -0.68243    -0.67972    -0.67729
    -0.67644    -0.67524    -0.67419    -0.66894    -0.66804    -0.66745
    -0.66710    -0.66336    -0.66099    -0.66041    -0.65648    -0.65305
    -0.65097    -0.64384    -0.63846    -0.62673    -0.61138    -0.60903
    -0.60896    -0.60274    -0.60053    -0.58845    -0.58370    -0.58172
    -0.58167    -0.57902    -0.57712    -0.57593    -0.57344    -0.57281
    -0.56551    -0.56231    -0.56095    -0.55983    -0.55214    -0.55059
    -0.54796    -0.54464    -0.54015    -0.54004    -0.53725    -0.53483
    -0.53320    -0.52808    -0.52693    -0.52521    -0.52207    -0.52071
    -0.51935    -0.51609    -0.51501    -0.51473    -0.51257    -0.51100
    -0.50829    -0.50712    -0.50689    -0.50515    -0.50292    -0.50071
    -0.50025    -0.49790    -0.49741    -0.49641    -0.49612    -0.49583
    -0.49323    -0.49271    -0.49243    -0.49106    -0.48911    -0.48756
    -0.48503    -0.48494    -0.48307    -0.48272    -0.48130    -0.47673
    -0.47658    -0.47511    -0.47206    -0.47036    -0.46650    -0.46483
    -0.46289    -0.45555    -0.45309    -0.45225    -0.44956    -0.44739
    -0.44457    -0.44325    -0.43734    -0.43557    -0.43345    -0.43253
    -0.42833    -0.42720    -0.42543    -0.42366    -0.41974    -0.41955
    -0.41893    -0.41761    -0.41471    -0.41170    -0.40960    -0.40645
    -0.40202    -0.40175    -0.40014    -0.39725    -0.39597    -0.39430
    -0.39280    -0.39148    -0.39058    -0.39013    -0.38638    -0.38599
    -0.38526    -0.38312    -0.38041    -0.37915    -0.37620    -0.36972
    -0.36478    -0.36183    -0.35603    -0.35349    -0.34953    -0.34605
    -0.34411    -0.34223    -0.34114    -0.33990    -0.33635    -0.33155
    -0.33122    -0.32939    -0.32551    -0.31735    -0.30998    -0.30500
    -0.30478    -0.30351    -0.30119    -0.29998    -0.29738    -0.29562
    -0.29391    -0.29240    -0.29145    -0.29047    -0.28831    -0.28739
    -0.28620    -0.28370    -0.27481    -0.25532    -0.06270    -0.02177
    -0.02142    -0.00329    -0.00225     0.00781     0.01443     0.01705
     0.01965     0.02168
 
  Peak memory usage:    859 Mb
  
  end of program scf
   
 Time(scf)  user:     2598.0  user+sys:     2613.0  wallclock:     4300.7
  
  start of program sole
  
    SCRF                   solvation energy
  iteration          Hartrees            kcal/mol
     0               0.0000000            0.0000
     1              -0.0183391          -11.5080
     2              -0.0196235          -12.3139
     3              -0.0199126          -12.4953
  
  solvation energy not yet converged... 
  
  Peak memory usage:    635 Mb
  
  end of program sole
   
 Time(sole)  user:        0.0  user+sys:        0.0  wallclock:        0.3
  
  start of program ch
  
  gridpoints used for charge fit        16449
    out of a possible maximum of        16449
  
   Electrostatic potential fitting constrained to reproduce
     total charge:                yes
     dipole moment:               no 
     traceless quadrupole moment: no 
     traceless octapole moment:   no 
  
  Atomic charges from electrostatic potential: 
   
 Atom       C1           C2           C3           C4           C5      
 Charge   -0.08930     -0.04334     -0.19389      0.21786      0.06981
   
 Atom       C6           C7           C8           C9           C10     
 Charge   -0.24297     -0.39813     -0.10518     -0.06560     -0.04397
   
 Atom       C11          O12          Si13         C14          C15     
 Charge    0.19040     -0.20737     -0.16782      0.10835      0.02362
   
 Atom       C16          C17          C18          C19          C20     
 Charge    0.31782     -0.20794     -0.51394     -0.29124      0.13892
   
 Atom       Si21         O22          C23          C24          P25     
 Charge   -0.13991     -0.20694     -0.15306     -0.11224      0.91622
   
 Atom       O26          N27          C28          C29          C30     
 Charge   -0.50681     -0.63606      0.20382     -0.00433      0.11454
   
 Atom       C31          C32          C33          C34          C35     
 Charge    0.13230      0.15009      0.10213     -0.19123     -0.20636
   
 Atom       C36          C37          C38          C39          C40     
 Charge   -0.10449     -0.10685     -0.07273     -0.13975     -0.09319
   
 Atom       C41          C42          C43          C44          C45     
 Charge   -0.19527     -0.14336     -0.19718     -0.16964     -0.15035
   
 Atom       C46          C47          C48          C49          C50     
 Charge   -0.14071     -0.15777     -0.12515     -0.12718     -0.10058
   
 Atom       C51          C52          C53          C54          C55     
 Charge   -0.18540     -0.16574     -0.15208     -0.12784     -0.15366
   
 Atom       C56          C57          C58          C59          C60     
 Charge   -0.15988     -0.12476     -0.14319     -0.15925     -0.11904
   
 Atom       C61          C62          C63          C64          C65     
 Charge   -0.14352     -0.12277     -0.14363     -0.13659     -0.18326
   
 Atom       C66          C67          C68          C69          C70     
 Charge    0.06366     -0.24151      0.05534     -0.14776      0.26195
   
 Atom       N71          S72          O73          O74          C75     
 Charge   -0.56820      0.74611     -0.43697     -0.49480      0.49938
   
 Atom       C76          C77          C78          C79          N80     
 Charge   -0.42881      0.19178     -0.44109      0.43344     -0.60595
   
 Atom       N81          C82          C83          C84          C85     
 Charge   -0.11287     -0.03451     -0.26374     -0.27284      0.32809
   
 Atom       H86          H87          H88          H89          H90     
 Charge    0.09926      0.15827      0.15203      0.19056      0.14104
   
 Atom       H91          H92          H93          H94          H95     
 Charge    0.13748      0.22385      0.16717      0.15065      0.13952
   
 Atom       H96          H97          H98          H99          H100    
 Charge    0.13129      0.11428      0.11026      0.13353      0.09315
   
 Atom       H101         H102         H103         H104         H105    
 Charge    0.12008      0.11417      0.12706      0.09640      0.12593
   
 Atom       H106         H107         H108         H109         H110    
 Charge    0.13879      0.13922      0.14189      0.14350      0.14120
   
 Atom       H111         H112         H113         H114         H115    
 Charge    0.09848      0.11567      0.14155      0.14557      0.13600
   
 Atom       H116         H117         H118         H119         H120    
 Charge    0.12272      0.14404      0.14298      0.13808      0.14145
   
 Atom       H121         H122         H123         H124         H125    
 Charge    0.14216      0.13640      0.11966      0.12681      0.13018
   
 Atom       H126         H127         H128         H129         H130    
 Charge    0.14966      0.11785      0.17517      0.04098      0.13759
   
 Atom       H131         H132         H133         H134         H135    
 Charge    0.11349      0.20784      0.11158      0.20462      0.06163
   
 Atom       H136         H137         H138         H139         H140    
 Charge    0.22159      0.18044      0.20257      0.21653     -0.00307
   
 Atom       S141         O142         C143         O144         F145    
 Charge    0.79574     -0.46069      0.43413     -0.50340     -0.13008
   
 Atom       F146         F147         H148    
 Charge   -0.14365     -0.15822      0.37118
  
  sum of atomic charges:     0.000000
   
 RMS Error   1.02E-03 hartrees
 
  Peak memory usage:    588 Mb
  
  end of program ch
   
 Time(ch)  user:       19.0  user+sys:       20.0  wallclock:       27.0
  
  start of program post
  
  Writing input files for PBF
  Peak memory usage:    536 Mb
  
  end of program post
   
 Time(post)  user:        0.0  user+sys:        0.0  wallclock:        0.4

  start of program pbf

Pbf Version 4.00

Molecular surface area:      820.54892   [A2]
Reaction field energy:       -20.60768   [kT]
  Peak memory usage: 561 Mb

  end of program pbf

 Time(pbf)  user:        7.8  user+sys:        7.8  wallclock:       15.0
  
  start of program solv
  
   number of surface charges from PBF   13760
   sum of surface charges     -0.00022
   
  nuclear repulsion energy.......   20859.975496621 hartrees
  Peak memory usage:    701 Mb
  
  end of program solv
   
 Time(solv)  user:       39.0  user+sys:       39.0  wallclock:       56.1
  
  start of program scf
  
  
       i  u  d  i  g                   
       t  p  i  c  r                                 RMS    maximum
       e  d  i  u  i                       energy  density   DIIS  
       r  t  s  t  d       total energy    change  change    error 
  
etot    1  N  N  1  U   -5575.59613467860           9.3E-06  2.7E-04
etot    2  N  Y  1  U   -5575.59607471908 -6.0E-05  6.1E-06  4.6E-04
etot    3  N  Y  1  U   -5575.59616282508  8.8E-05  2.1E-07  1.2E-05
etot    4  N  N  1  U   -5575.59616289539  7.0E-08  0.0E+00  0.0E+00
  
  
 Energy components, in hartrees:
   (A)  Total zero-electron terms....   20862.39792449743
   (B)    Nuclear-nuclear............   20859.97549662129
   (C)    Nuclear-solvent............       2.42242787613
   (E)  Total one-electron terms.....  -49251.14132646064
   (F)    Electron-nuclear...........  -54784.72294888949
   (G)    Electron-solvent...........      -2.46503883329
   (H)    Kinetic....................    5536.04666126214
   (I)  Total two-electron terms.....   22813.14723906782
   (J)    Coulomb....................   23464.42229047589
   (K)    Exchange+Correlation.......    -651.27505140806
   (L)  Electronic energy............  -26437.99408739282  (E+I)
   (N)  Total quantum mech. energy...   -5575.59616289539  (A+L)
   (O)  Gas phase energy.............   -5575.55505448172
   (P)  Solution phase energy........   -5575.57485741681  (Q+R+S)
   (Q)    Total solute energy........   -5575.55355193823  (N-C-G)
   (R)    Total solvent energy.......      -0.02130547858  (C/2+G/2)
   (S)    Solute cavity energy.......       0.00000000000
   (U)  Reorganization energy........       0.00150254348  (Q-O)
   (V)  Solvation energy.............      -0.01980293510  (P-O)
  
 SCFE:  Solution phase energy: DFT(m06-2x)      -5575.57485741681 hartrees
        SCF iterations:   4
  
 
 HOMO energy:    -0.25509
 LUMO energy:    -0.06243
 
  Orbital energies (hartrees): 
   -90.18012   -90.15651   -78.21077   -67.00978   -67.00845   -25.29328
   -25.29312   -25.28973   -19.68973   -19.68712   -19.66167   -19.65706
   -19.63309   -19.62914   -19.60469   -14.81782   -14.81777   -14.79243
   -14.74064   -10.80763   -10.65852   -10.63633   -10.62524   -10.62386
   -10.61960   -10.60744   -10.59750   -10.59147   -10.59063   -10.58120
   -10.57983   -10.57779   -10.57329   -10.57041   -10.57029   -10.56834
   -10.56596   -10.56570   -10.56383   -10.56270   -10.56098   -10.55998
   -10.55982   -10.55906   -10.55706   -10.55434   -10.55416   -10.55370
   -10.55355   -10.55351   -10.55330   -10.55262   -10.55249   -10.55249
   -10.55191   -10.55184   -10.55180   -10.55108   -10.55100   -10.55078
   -10.54995   -10.54980   -10.54918   -10.54902   -10.54889   -10.54874
   -10.54806   -10.54729   -10.54636   -10.54541   -10.54463   -10.54441
   -10.54420   -10.54391   -10.54380   -10.54360   -10.54328   -10.54327
   -10.54250   -10.54236   -10.54204   -10.54187   -10.54180   -10.54153
   -10.54109   -10.53948   -10.53537   -10.53442   -10.53286   -10.52869
   -10.52848   -10.52673    -8.49059    -8.46484    -6.99010    -6.41284
    -6.41181    -6.41099    -6.38677    -6.38639    -6.38620    -5.54097
    -5.53926    -5.10867    -5.10748    -5.10601    -3.85082    -3.85048
    -3.85018    -3.84898    -3.84873    -3.84868    -1.45827    -1.36821
    -1.36588    -1.25271    -1.23021    -1.21913    -1.18505    -1.13911
    -1.11048    -1.10395    -1.08902    -1.08636    -1.06530    -0.99277
    -0.98269    -0.96854    -0.96727    -0.94725    -0.94383    -0.94357
    -0.93791    -0.93662    -0.93538    -0.92692    -0.92291    -0.91185
    -0.90280    -0.89628    -0.89142    -0.87623    -0.85455    -0.84739
    -0.84510    -0.84302    -0.84024    -0.83872    -0.83730    -0.83592
    -0.83501    -0.83113    -0.83065    -0.82910    -0.82859    -0.82816
    -0.82703    -0.82589    -0.82359    -0.82318    -0.82031    -0.80569
    -0.80191    -0.76423    -0.75649    -0.74067    -0.73092    -0.71718
    -0.71051    -0.70490    -0.69933    -0.69178    -0.69109    -0.68637
    -0.68538    -0.68408    -0.68309    -0.68219    -0.67946    -0.67719
    -0.67617    -0.67503    -0.67424    -0.66915    -0.66824    -0.66719
    -0.66669    -0.66336    -0.66109    -0.66017    -0.65601    -0.65267
    -0.65076    -0.64380    -0.63816    -0.62649    -0.61107    -0.60888
    -0.60840    -0.60244    -0.60037    -0.58801    -0.58360    -0.58167
    -0.58125    -0.57893    -0.57690    -0.57574    -0.57329    -0.57275
    -0.56522    -0.56182    -0.56078    -0.55961    -0.55190    -0.55046
    -0.54779    -0.54426    -0.53994    -0.53962    -0.53711    -0.53429
    -0.53322    -0.52783    -0.52674    -0.52494    -0.52200    -0.52052
    -0.51931    -0.51590    -0.51500    -0.51452    -0.51228    -0.51084
    -0.50801    -0.50696    -0.50657    -0.50515    -0.50273    -0.50073
    -0.49996    -0.49771    -0.49713    -0.49612    -0.49588    -0.49546
    -0.49320    -0.49259    -0.49218    -0.49093    -0.48878    -0.48726
    -0.48508    -0.48481    -0.48311    -0.48256    -0.48109    -0.47683
    -0.47622    -0.47483    -0.47272    -0.47034    -0.46643    -0.46471
    -0.46300    -0.45539    -0.45296    -0.45215    -0.44940    -0.44726
    -0.44440    -0.44291    -0.43713    -0.43535    -0.43329    -0.43199
    -0.42822    -0.42702    -0.42519    -0.42346    -0.41968    -0.41928
    -0.41880    -0.41737    -0.41436    -0.41151    -0.40938    -0.40623
    -0.40197    -0.40130    -0.39943    -0.39672    -0.39589    -0.39431
    -0.39283    -0.39127    -0.39030    -0.38993    -0.38639    -0.38558
    -0.38502    -0.38289    -0.38011    -0.37853    -0.37580    -0.36950
    -0.36462    -0.36133    -0.35568    -0.35311    -0.34831    -0.34588
    -0.34397    -0.34193    -0.34073    -0.33972    -0.33574    -0.33192
    -0.33095    -0.32887    -0.32504    -0.31663    -0.30963    -0.30502
    -0.30472    -0.30316    -0.30089    -0.29999    -0.29735    -0.29518
    -0.29398    -0.29211    -0.29131    -0.29003    -0.28795    -0.28696
    -0.28624    -0.28348    -0.27469    -0.25509    -0.06243    -0.02150
    -0.02095    -0.00313    -0.00213     0.00813     0.01457     0.01716
     0.01984     0.02175
 
  Peak memory usage:    859 Mb
  
  end of program scf
   
 Time(scf)  user:     7713.0  user+sys:     7751.0  wallclock:     9860.4
  
  start of program sole
  
    SCRF                   solvation energy
  iteration          Hartrees            kcal/mol
     0               0.0000000            0.0000
     1              -0.0183391          -11.5080
     2              -0.0196235          -12.3139
     3              -0.0199126          -12.4953
     4              -0.0198029          -12.4265
  
  stopping: solvation energy converged
  
  iterations:   4    sfinal:    -12.4265 kcal/mol
  
  Peak memory usage:    635 Mb
  
  end of program sole
   
 Time(sole)  user:        0.0  user+sys:        0.0  wallclock:        0.2
  
  start of program post
  
  Writing input files for PBF
  Peak memory usage:    536 Mb
  
  end of program post
   
 Time(post)  user:        0.0  user+sys:        0.0  wallclock:        0.2

 Total cpu seconds     user:   58664.000   user+sys:   58963.000
  
 Total elapsed time:    91241 seconds

Job Toru-NTf-Sulfonyl-2-chkp-unrestrained-uff-acc-sol completed on tethys at Sat Feb 11 15:56:05 2017
