Job MO6-2X-SPE-Toru-SiPh3-Type-I-Z-1-chkp-unrestrained.mol started on tethys at Thu Nov 24 15:05:37 2016
jobid: tethys-0-583701c0

  +--------------------------------------------------------------------+
  |  Jaguar version 8.4, release  16                                   |
  |                                                                    |
  |  Copyright Schrodinger, Inc.                                       |
  |  All Rights Reserved.                                              |
  |                                                                    |
  |  The following have contributed to Jaguar (listed alphabetically): |
  |  Mike Beachy, Art Bochevarov, Dale Braden, Yixiang Cao,            |
  |  Chris Cortis, Rich Friesner, Bill Goddard, Hod Greeley,           |
  |  Tom Hughes, Jean-Marc Langlois, Daniel Mainz, Rob Murphy,         |
  |  Dean Philipp, Tom Pollard, Murco Ringnalda.                       |
  |                                                                    |
  |  Use of this program should be acknowledged in publications as:    |
  |                                                                    |
  |  Jaguar, version 8.4, Schrodinger, Inc., New York, NY, 2013.       |
  |                                                                    |
  |  A. D. Bochevarov, E. Harder, T. F. Hughes, J. R. Greenwood,       |
  |  D. A. Braden, D. M. Philipp, D. Rinaldo, M. D. Halls,             |
  |  J. Zhang, R. A. Friesner, "Jaguar: A High-Performance Quantum     |
  |  Chemistry Software Program with Strengths in Life and Materials   |
  |  Sciences", Int. J. Quantum Chem., 2013, 113(18), 2110-2142.       |
  +--------------------------------------------------------------------+
  
  start of program pre
  
  Job name: MO6-2X-SPE-Toru-SiPh3-Type-I-Z-1-chkp-unrestrained.mol
  Executables used: /usr/local/shared/schrodinger/current/jaguar-v84016/bin/Linux-x86_64
  Temporary files : /home/ab2144/.schrodinger/tmp/MO6-2X-SPE-Toru-SiPh3-Type-I-Z-1-chkp-unrestrained.mol
  Maestro file (input):  MO6-2X-SPE-Toru-SiPh3-Type-I-Z-1-chkp-unrestrained.mol.mae
  Maestro file (output): MO6-2X-SPE-Toru-SiPh3-Type-I-Z-1-chkp-unrestrained.mol.01.mae
  
  
  basis set:             6-31g**         
  net molecular charge:    0
  multiplicity:            1
  
  keygrid settings 
    wispc.....   7.500E-01
    ldens.....   0
    denspc....   7.500E-01
  
   grid     daf set  nls  grid set  Q type
  ------    -------  ---  --------  ------
  coarse       1      1       1        1
  medium       2      2       2        1
  fine         3      2       3        0
  ultrafine    4      2       4        1
  charge       0      1      -1        1
  gradient     5      2       4        1
  density      0      1       0        0
  DFT-fine     0      1     -13        0
  DFT-med.     0      1     -13        0
  DFT-grad     0      1     -13        0
  DFT-der2     0      1       0        0
  DFT-cphf     0      1       0        0
  LMP2-enrg    4      2       4        1
  LMP2-grad    5      2       2        1
  DFT-cphf2    0      1       0        0
  PBF-dens     0      1       0        0
  plotting     0      1       0        0
  
  idftgrdm  100
  ndftgrdm   50    0    0
  idftgrdf  111
  ndftgrdf   85    0    0
  idftgrdg  111
  ndftgrdg   80    3    0
  idftgrdu  433
  ndftgrdu  105    0    0
  idftgrdd  433
  ndftgrdd  105    0    0
  idftgrdc  433
  ndftgrdc   26    0    0
  idftgrdp  433
  ndftgrdp   18    0    0
  
  number of basis functions....         1571
  
 Input geometry:
                                   angstroms
  atom               x                 y                 z
  C1           -0.9178000000      5.4538000000     -0.0198000000 
  C2            0.2403000000      4.5181000000     -0.0636000000 
  C3           -0.7397000000      6.7620000000     -0.2371000000 
  C4            1.4636000000      5.0053000000     -0.3672000000 
  C5            0.0713000000      3.0543000000      0.1868000000 
  C6            1.6507000000      6.4565000000     -0.6000000000 
  C7            2.6187000000      4.0944000000     -0.4686000000 
  C8            0.6058000000      7.2882000000     -0.5338000000 
  C9            1.1023000000      2.2106000000     -0.0705000000 
  C10          -1.2241000000      2.5267000000      0.6923000000 
  C11           2.4565000000      2.7694000000     -0.3448000000 
  O12           0.9897000000      0.8596000000      0.1545000000 
  Si13          3.9395000000      1.6324000000     -0.3751000000 
  C14          -1.7591000000      2.9020000000      1.8759000000 
  C15          -1.9609000000      1.5723000000     -0.1733000000 
  C16          -3.1366000000      2.4693000000      2.2244000000 
  C17          -1.0316000000      3.7356000000      2.8648000000 
  C18          -3.8445000000      1.7167000000      1.3714000000 
  C19          -3.7118000000      2.9077000000      3.5110000000 
  C20          -3.2386000000      1.2397000000      0.1073000000 
  Si21         -4.2992000000      0.1505000000     -0.9836000000 
  O22          -1.2932000000      1.0134000000     -1.2270000000 
  C23          -1.6152000000      4.0868000000      4.0170000000 
  C24          -2.9940000000      3.6654000000      4.3474000000 
  P25          -0.1171000000     -0.0133000000     -0.7172000000 
  O26           0.5061000000     -0.6016000000     -1.9584000000 
  O27          -0.6916000000     -0.9594000000      0.3242000000 
  C28           5.5396000000      2.5788000000     -0.4397000000 
  C29           3.8420000000      0.6298000000      1.1909000000 
  C30           3.9203000000      0.5680000000     -1.8970000000 
  C31          -5.6999000000      1.1572000000     -1.6782000000 
  C32          -3.4131000000     -0.5493000000     -2.4662000000 
  C33          -4.9551000000     -1.2072000000      0.1099000000 
  C34           5.8470000000      3.2976000000     -1.5329000000 
  C35           6.5084000000      2.5095000000      0.6818000000 
  C36           3.7123000000      1.2580000000      2.3721000000 
  C37           3.8593000000     -0.8527000000      1.1556000000 
  C38           4.8810000000     -0.3510000000     -2.0910000000 
  C39           2.8958000000      0.7821000000     -2.9464000000 
  C40          -6.6005000000      0.5771000000     -2.4892000000 
  C41          -5.8114000000      2.6073000000     -1.3839000000 
  C42          -2.9667000000      0.2764000000     -3.4286000000 
  C43          -3.2489000000     -2.0145000000     -2.6351000000 
  C44          -6.2639000000     -1.2985000000      0.4033000000 
  C45          -4.0088000000     -2.1746000000      0.7133000000 
  C46           7.1239000000      4.0374000000     -1.6036000000 
  C47           7.9877000000      3.9824000000     -0.5833000000 
  C48           7.6665000000      3.1781000000      0.6128000000 
  C49           3.6142000000      0.4798000000      3.6242000000 
  C50           3.6531000000     -0.8567000000      3.5869000000 
  C51           3.7789000000     -1.5548000000      2.2928000000 
  C52           4.8756000000     -1.1875000000     -3.3090000000 
  C53           3.9254000000     -1.0163000000     -4.2354000000 
  C54           2.8929000000      0.0230000000     -4.0494000000 
  C55          -7.7083000000      1.3707000000     -3.0603000000 
  C56          -7.8115000000      2.6753000000     -2.7814000000 
  C57          -6.8148000000      3.3239000000     -1.9057000000 
  C58          -2.2592000000     -0.2648000000     -4.6073000000 
  C59          -2.0922000000     -1.5853000000     -4.7405000000 
  C60          -2.6256000000     -2.5025000000     -3.7143000000 
  C61          -6.7534000000     -2.3682000000      1.2983000000 
  C62          -5.8938000000     -3.2454000000      1.8292000000 
  C63          -4.4539000000     -3.1438000000      1.5217000000 
  C64           3.9440000000     -5.9611000000      0.4047000000 
  C65           2.8502000000     -5.1598000000      0.7171000000 
  C66           2.5042000000     -4.0864000000     -0.1216000000 
  C67           3.2776000000     -3.8471000000     -1.2735000000 
  C68           4.3705000000     -4.6547000000     -1.5815000000 
  C69           4.7050000000     -5.7163000000     -0.7427000000 
  C70           1.3939000000     -3.1436000000      0.1077000000 
  N71           0.8738000000     -2.7498000000      1.3220000000 
  S72           0.2985000000     -3.7178000000      2.6001000000 
  O73          -0.6874000000     -4.6806000000      2.0968000000 
  O74           1.4235000000     -4.1999000000      3.4118000000 
  C75          -0.5000000000     -2.3596000000      3.5161000000 
  C76           0.2055000000     -1.7385000000      4.5439000000 
  C77          -0.3993000000     -0.6281000000      5.1333000000 
  C78          -1.6502000000     -0.2168000000      4.6741000000 
  C79          -2.2649000000     -0.9431000000      3.6521000000 
  N80          -1.6960000000     -2.0062000000      3.0756000000 
  N81           0.1563000000     -3.2202000000     -2.3037000000 
  C82           0.4779000000     -4.2249000000     -3.1165000000 
  C83           0.2433000000     -5.4568000000     -2.4577000000 
  C84          -0.2230000000     -5.1508000000     -1.1910000000 
  C85          -0.2091000000     -3.7303000000     -1.0484000000 
  H86          -1.9175000000      5.0892000000      0.1749000000 
  H87          -1.5849000000      7.4374000000     -0.2045000000 
  H88           2.6343000000      6.8490000000     -0.8263000000 
  H89           3.5971000000      4.5211000000     -0.6348000000 
  H90           0.7430000000      8.3480000000     -0.7055000000 
  H91          -0.0138000000      4.0545000000      2.6804000000 
  H92          -4.8577000000      1.4229000000      1.6206000000 
  H93          -4.7173000000      2.6145000000      3.7883000000 
  H94          -1.0668000000      4.6895000000      4.7295000000 
  H95          -3.4266000000      3.9759000000      5.2898000000 
  H96           0.2186000000     -1.9202000000      1.1272000000 
  H97           5.1652000000      3.3470000000     -2.3733000000 
  H98           6.2952000000      1.9159000000      1.5597000000 
  H99           3.6791000000      2.3395000000      2.4236000000 
  H100          3.9316000000     -1.3806000000      0.2175000000 
  H101          5.6646000000     -0.4971000000     -1.3578000000 
  H102          2.1405000000      1.5478000000     -2.8279000000 
  H103         -6.5300000000     -0.4764000000     -2.7315000000 
  H104         -5.0828000000      3.1010000000     -0.7559000000 
  H105         -3.1003000000      1.3481000000     -3.3443000000 
  H106         -3.6423000000     -2.7040000000     -1.9032000000 
  H107         -6.9788000000     -0.5907000000      0.0085000000 
  H108         -2.9541000000     -2.1085000000      0.4942000000 
  H109          7.3586000000      4.6226000000     -2.4833000000 
  H110          8.9242000000      4.5227000000     -0.6338000000 
  H111          8.3729000000      3.1266000000      1.4312000000 
  H112          3.5152000000      0.9941000000      4.5712000000 
  H113          3.5892000000     -1.4286000000      4.5033000000 
  H114          3.7963000000     -2.6364000000      2.2664000000 
  H115          5.6379000000     -1.9434000000     -3.4457000000 
  H116          3.9160000000     -1.6321000000     -5.1253000000 
  H117          2.1366000000      0.1722000000     -4.8092000000 
  H118         -8.4351000000      0.8936000000     -3.7049000000 
  H119         -8.6218000000      3.2584000000     -3.1996000000 
  H120         -6.8950000000      4.3819000000     -1.6917000000 
  H121         -1.8748000000      0.4102000000     -5.3609000000 
  H122         -1.5725000000     -1.9843000000     -5.6018000000 
  H123         -2.5090000000     -3.5717000000     -3.8366000000 
  H124         -7.8094000000     -2.4377000000      1.5254000000 
  H125         -6.2508000000     -4.0282000000      2.4858000000 
  H126         -3.7593000000     -3.8525000000      1.9540000000 
  H127          4.2106000000     -6.7785000000      1.0678000000 
  H128          2.2953000000     -5.3518000000      1.6265000000 
  H129          3.0313000000     -3.0028000000     -1.9088000000 
  H130          4.9627000000     -4.4463000000     -2.4673000000 
  H131          5.5593000000     -6.3460000000     -0.9730000000 
  H132          1.4856000000     -2.2523000000     -0.5064000000 
  H133          1.1748000000     -2.1103000000      4.8505000000 
  H134          0.1027000000     -0.0908000000      5.9318000000 
  H135         -2.1458000000      0.6496000000      5.0995000000 
  H136         -3.2451000000     -0.6606000000      3.2765000000 
  H137          0.2594000000     -2.1833000000     -2.4278000000 
  H138          0.8639000000     -4.0442000000     -4.1111000000 
  H139          0.4164000000     -6.4356000000     -2.8817000000 
  H140         -0.5077000000     -5.8317000000     -0.4016000000 
  H141         -0.8998000000     -3.1363000000     -0.4635000000 
   
  principal moments of inertia:
        amu*angstrom^2:    17489.81018    22290.90167    27129.09005
                g*cm^2: 2.90425095E-36 3.70149085E-36 4.50489083E-36
   
  rotational constants:
               cm^(-1):      0.00096385      0.00075626      0.00062139
                   GHz:      0.02889563      0.02267199      0.01862868
   
  Molecular weight:    1177.32 amu
   
  Stoichiometry: Si2C72PN3H56SO6
  Molecular Point Group: C1      
  Point Group used: C1
  
  nuclear repulsion energy.......   17461.305836203 hartrees
 
 Non-default options chosen:
   SCF calculation type: DFT(m06-2x)                 
   DFT=M06-2X
   Solvation energy will be computed using PBF
     -solute cavity energy will not be included
     -surface area terms will not be included
   Highest accuracy cutoffs used in SCF
   Solvent: other                                                           
   Internal dielectric constant:    1.000
   Continuum dielectric constant:   2.380
   Solvent probe molecule radius:   2.760
  
 Temporary integer options set:
     73=  2
  
  atom       vdw   vdw2    cov     mass  grid  daf  charge   basis
  C1        1.949  1.900  0.770   12.000    Y    Y      Y    6-31g**
  C2        1.949  1.900  0.770   12.000    Y    Y      Y    6-31g**
  C3        1.949  1.900  0.770   12.000    Y    Y      Y    6-31g**
  C4        1.949  1.900  0.770   12.000    Y    Y      Y    6-31g**
  C5        1.949  1.900  0.770   12.000    Y    Y      Y    6-31g**
  C6        1.949  1.900  0.770   12.000    Y    Y      Y    6-31g**
  C7        1.949  1.900  0.770   12.000    Y    Y      Y    6-31g**
  C8        1.949  1.900  0.770   12.000    Y    Y      Y    6-31g**
  C9        1.949  1.900  0.770   12.000    Y    Y      Y    6-31g**
  C10       1.949  1.900  0.770   12.000    Y    Y      Y    6-31g**
  C11       1.949  1.900  0.770   12.000    Y    Y      Y    6-31g**
  O12       1.702  1.600  0.730   15.995    Y    Y      Y    6-31g**
  Si13      2.217  2.147  1.110   27.977    Y    Y      Y    6-31g**
  C14       1.949  1.900  0.770   12.000    Y    Y      Y    6-31g**
  C15       1.949  1.900  0.770   12.000    Y    Y      Y    6-31g**
  C16       1.949  1.900  0.770   12.000    Y    Y      Y    6-31g**
  C17       1.949  1.900  0.770   12.000    Y    Y      Y    6-31g**
  C18       1.949  1.900  0.770   12.000    Y    Y      Y    6-31g**
  C19       1.949  1.900  0.770   12.000    Y    Y      Y    6-31g**
  C20       1.949  1.900  0.770   12.000    Y    Y      Y    6-31g**
  Si21      2.217  2.147  1.110   27.977    Y    Y      Y    6-31g**
  O22       1.702  1.600  0.730   15.995    Y    Y      Y    6-31g**
  C23       1.949  1.900  0.770   12.000    Y    Y      Y    6-31g**
  C24       1.949  1.900  0.770   12.000    Y    Y      Y    6-31g**
  P25       2.147  2.074  1.060   30.974    Y    Y      Y    6-31g**
  O26       1.702  1.600  0.730   15.995    Y    Y      Y    6-31g**
  O27       1.702  1.600  0.730   15.995    Y    Y      Y    6-31g**
  C28       1.949  1.900  0.770   12.000    Y    Y      Y    6-31g**
  C29       1.949  1.900  0.770   12.000    Y    Y      Y    6-31g**
  C30       1.949  1.900  0.770   12.000    Y    Y      Y    6-31g**
  C31       1.949  1.900  0.770   12.000    Y    Y      Y    6-31g**
  C32       1.949  1.900  0.770   12.000    Y    Y      Y    6-31g**
  C33       1.949  1.900  0.770   12.000    Y    Y      Y    6-31g**
  C34       1.949  1.900  0.770   12.000    Y    Y      Y    6-31g**
  C35       1.949  1.900  0.770   12.000    Y    Y      Y    6-31g**
  C36       1.949  1.900  0.770   12.000    Y    Y      Y    6-31g**
  C37       1.949  1.900  0.770   12.000    Y    Y      Y    6-31g**
  C38       1.949  1.900  0.770   12.000    Y    Y      Y    6-31g**
  C39       1.949  1.900  0.770   12.000    Y    Y      Y    6-31g**
  C40       1.949  1.900  0.770   12.000    Y    Y      Y    6-31g**
  C41       1.949  1.900  0.770   12.000    Y    Y      Y    6-31g**
  C42       1.949  1.900  0.770   12.000    Y    Y      Y    6-31g**
  C43       1.949  1.900  0.770   12.000    Y    Y      Y    6-31g**
  C44       1.949  1.900  0.770   12.000    Y    Y      Y    6-31g**
  C45       1.949  1.900  0.770   12.000    Y    Y      Y    6-31g**
  C46       1.949  1.900  0.770   12.000    Y    Y      Y    6-31g**
  C47       1.949  1.900  0.770   12.000    Y    Y      Y    6-31g**
  C48       1.949  1.900  0.770   12.000    Y    Y      Y    6-31g**
  C49       1.949  1.900  0.770   12.000    Y    Y      Y    6-31g**
  C50       1.949  1.900  0.770   12.000    Y    Y      Y    6-31g**
  C51       1.949  1.900  0.770   12.000    Y    Y      Y    6-31g**
  C52       1.949  1.900  0.770   12.000    Y    Y      Y    6-31g**
  C53       1.949  1.900  0.770   12.000    Y    Y      Y    6-31g**
  C54       1.949  1.900  0.770   12.000    Y    Y      Y    6-31g**
  C55       1.949  1.900  0.770   12.000    Y    Y      Y    6-31g**
  C56       1.949  1.900  0.770   12.000    Y    Y      Y    6-31g**
  C57       1.949  1.900  0.770   12.000    Y    Y      Y    6-31g**
  C58       1.949  1.900  0.770   12.000    Y    Y      Y    6-31g**
  C59       1.949  1.900  0.770   12.000    Y    Y      Y    6-31g**
  C60       1.949  1.900  0.770   12.000    Y    Y      Y    6-31g**
  C61       1.949  1.900  0.770   12.000    Y    Y      Y    6-31g**
  C62       1.949  1.900  0.770   12.000    Y    Y      Y    6-31g**
  C63       1.949  1.900  0.770   12.000    Y    Y      Y    6-31g**
  C64       1.949  1.900  0.770   12.000    Y    Y      Y    6-31g**
  C65       1.949  1.900  0.770   12.000    Y    Y      Y    6-31g**
  C66       1.949  1.900  0.770   12.000    Y    Y      Y    6-31g**
  C67       1.949  1.900  0.770   12.000    Y    Y      Y    6-31g**
  C68       1.949  1.900  0.770   12.000    Y    Y      Y    6-31g**
  C69       1.949  1.900  0.770   12.000    Y    Y      Y    6-31g**
  C70       1.949  1.900  0.770   12.000    Y    Y      Y    6-31g**
  N71       1.831  1.600  0.750   14.003    Y    Y      Y    6-31g**
  S72       2.070  1.900  1.020   31.972    Y    Y      Y    6-31g**
  O73       1.702  1.600  0.730   15.995    Y    Y      Y    6-31g**
  O74       1.702  1.600  0.730   15.995    Y    Y      Y    6-31g**
  C75       1.949  1.900  0.770   12.000    Y    Y      Y    6-31g**
  C76       1.949  1.900  0.770   12.000    Y    Y      Y    6-31g**
  C77       1.949  1.900  0.770   12.000    Y    Y      Y    6-31g**
  C78       1.949  1.900  0.770   12.000    Y    Y      Y    6-31g**
  C79       1.949  1.900  0.770   12.000    Y    Y      Y    6-31g**
  N80       1.831  1.600  0.750   14.003    Y    Y      Y    6-31g**
  N81       1.831  1.600  0.750   14.003    Y    Y      Y    6-31g**
  C82       1.949  1.900  0.770   12.000    Y    Y      Y    6-31g**
  C83       1.949  1.900  0.770   12.000    Y    Y      Y    6-31g**
  C84       1.949  1.900  0.770   12.000    Y    Y      Y    6-31g**
  C85       1.949  1.900  0.770   12.000    Y    Y      Y    6-31g**
  H86       1.597  1.150  0.320    1.008    Y    Y      Y    6-31g**
  H87       1.597  1.150  0.320    1.008    Y    Y      Y    6-31g**
  H88       1.597  1.150  0.320    1.008    Y    Y      Y    6-31g**
  H89       1.597  1.150  0.320    1.008    Y    Y      Y    6-31g**
  H90       1.597  1.150  0.320    1.008    Y    Y      Y    6-31g**
  H91       1.597  1.150  0.320    1.008    Y    Y      Y    6-31g**
  H92       1.597  1.150  0.320    1.008    Y    Y      Y    6-31g**
  H93       1.597  1.150  0.320    1.008    Y    Y      Y    6-31g**
  H94       1.597  1.150  0.320    1.008    Y    Y      Y    6-31g**
  H95       1.597  1.150  0.320    1.008    Y    Y      Y    6-31g**
  H96       1.597  1.150  0.320    1.008    Y    Y      Y    6-31g**
  H97       1.597  1.150  0.320    1.008    Y    Y      Y    6-31g**
  H98       1.597  1.150  0.320    1.008    Y    Y      Y    6-31g**
  H99       1.597  1.150  0.320    1.008    Y    Y      Y    6-31g**
  H100      1.597  1.150  0.320    1.008    Y    Y      Y    6-31g**
  H101      1.597  1.150  0.320    1.008    Y    Y      Y    6-31g**
  H102      1.597  1.150  0.320    1.008    Y    Y      Y    6-31g**
  H103      1.597  1.150  0.320    1.008    Y    Y      Y    6-31g**
  H104      1.597  1.150  0.320    1.008    Y    Y      Y    6-31g**
  H105      1.597  1.150  0.320    1.008    Y    Y      Y    6-31g**
  H106      1.597  1.150  0.320    1.008    Y    Y      Y    6-31g**
  H107      1.597  1.150  0.320    1.008    Y    Y      Y    6-31g**
  H108      1.597  1.150  0.320    1.008    Y    Y      Y    6-31g**
  H109      1.597  1.150  0.320    1.008    Y    Y      Y    6-31g**
  H110      1.597  1.150  0.320    1.008    Y    Y      Y    6-31g**
  H111      1.597  1.150  0.320    1.008    Y    Y      Y    6-31g**
  H112      1.597  1.150  0.320    1.008    Y    Y      Y    6-31g**
  H113      1.597  1.150  0.320    1.008    Y    Y      Y    6-31g**
  H114      1.597  1.150  0.320    1.008    Y    Y      Y    6-31g**
  H115      1.597  1.150  0.320    1.008    Y    Y      Y    6-31g**
  H116      1.597  1.150  0.320    1.008    Y    Y      Y    6-31g**
  H117      1.597  1.150  0.320    1.008    Y    Y      Y    6-31g**
  H118      1.597  1.150  0.320    1.008    Y    Y      Y    6-31g**
  H119      1.597  1.150  0.320    1.008    Y    Y      Y    6-31g**
  H120      1.597  1.150  0.320    1.008    Y    Y      Y    6-31g**
  H121      1.597  1.150  0.320    1.008    Y    Y      Y    6-31g**
  H122      1.597  1.150  0.320    1.008    Y    Y      Y    6-31g**
  H123      1.597  1.150  0.320    1.008    Y    Y      Y    6-31g**
  H124      1.597  1.150  0.320    1.008    Y    Y      Y    6-31g**
  H125      1.597  1.150  0.320    1.008    Y    Y      Y    6-31g**
  H126      1.597  1.150  0.320    1.008    Y    Y      Y    6-31g**
  H127      1.597  1.150  0.320    1.008    Y    Y      Y    6-31g**
  H128      1.597  1.150  0.320    1.008    Y    Y      Y    6-31g**
  H129      1.597  1.150  0.320    1.008    Y    Y      Y    6-31g**
  H130      1.597  1.150  0.320    1.008    Y    Y      Y    6-31g**
  H131      1.597  1.150  0.320    1.008    Y    Y      Y    6-31g**
  H132      1.597  1.150  0.320    1.008    Y    Y      Y    6-31g**
  H133      1.597  1.150  0.320    1.008    Y    Y      Y    6-31g**
  H134      1.597  1.150  0.320    1.008    Y    Y      Y    6-31g**
  H135      1.597  1.150  0.320    1.008    Y    Y      Y    6-31g**
  H136      1.597  1.150  0.320    1.008    Y    Y      Y    6-31g**
  H137      1.597  1.150  0.320    1.008    Y    Y      Y    6-31g**
  H138      1.597  1.150  0.320    1.008    Y    Y      Y    6-31g**
  H139      1.597  1.150  0.320    1.008    Y    Y      Y    6-31g**
  H140      1.597  1.150  0.320    1.008    Y    Y      Y    6-31g**
  H141      1.597  1.150  0.320    1.008    Y    Y      Y    6-31g**
  
  Peak memory usage:    526 Mb
  
  end of program pre
   
 Time(pre)  user:        0.0  user+sys:        0.0  wallclock:        0.6
  
  start of program onee
  
  smallest eigenvalue of S:    2.246E-04
  number of canonical orbitals.....         1565
  Peak memory usage:    700 Mb
  
  end of program onee
   
 Time(onee)  user:       23.0  user+sys:       24.0  wallclock:       65.8
  
  start of program hfig
  
  initial wavefunction generated automatically from atomic wavefunctions
 
  Irreducible     Total no   No of occupied orbitals 
  representation  orbitals   Shell_1  Shell_2    ...
  No Symm         1565        308
  ------------------------
  Orbital occupation/shell    1.000
 
  Peak memory usage:    639 Mb
  
  end of program hfig
   
 Time(hfig)  user:       33.0  user+sys:       33.0  wallclock:       69.5
  
  start of program probe
  
  Peak memory usage:    633 Mb
  
  end of program probe
   
 Time(probe)  user:       25.0  user+sys:       25.0  wallclock:       63.5
  
  start of program grid
  
  
   grid     grid set  grid #  grid sym
  ------    --------  ------  --------
  coarse        0        0        1
  medium        2        1        1
  fine          0        0        1
  ultrafine     4        2        1
  charge       -1        3        1
  gradient      4        2        1
  density       0        0        1
  DFT-fine    -13        4        1
  DFT-med.    -13        4        1
  DFT-grad    -13        4        1
  DFT-der2      0        0        1
  DFT-cphf      0        0        1
  LMP2-enrg     4        2        1
  LMP2-grad     2        1        1
  DFT-cphf2     0        0        1
  PBF-dens      0        0        1
  plotting      0        0        1
  
   
  number of gridpoints: 
     atom        C1       C2       C3       C4       C5       C6       C7
  grid # 1       97      101       94      102      100       96       92
  grid # 2      338      360      337      366      358      336      337
  grid # 3       36       30       43       47       15       46       24
  grid # 4    48124    48124    48124    48124    48124    48124    48124
   
  number of gridpoints: 
     atom        C8       C9      C10      C11      O12     Si13      C14
  grid # 1       94       97      100       99      112      468      101
  grid # 2      336      355      353      360      440      468      356
  grid # 3       49       20       11        7       57        6       19
  grid # 4    48124    48124    48124    48124    47716    38542    48124
   
  number of gridpoints: 
     atom       C15      C16      C17      C18      C19      C20     Si21
  grid # 1       98      101       96       93       96      100      473
  grid # 2      359      363      337      328      335      362      473
  grid # 3       22       24       25        9       25       11        8
  grid # 4    48124    48124    48124    48124    48124    48124    38542
   
  number of gridpoints: 
     atom       O22      C23      C24      P25      O26      O27      C28
  grid # 1      112       94       93      445      115      116      101
  grid # 2      437      338      335      445      453      434      359
  grid # 3       50       28       27        8       45       35       15
  grid # 4    47716    48124    48124    38640    47716    47716    48124
   
  number of gridpoints: 
     atom       C29      C30      C31      C32      C33      C34      C35
  grid # 1      100      101      101      101       99       92       97
  grid # 2      356      359      357      356      357      335      339
  grid # 3        8       11       10        9       10       20       34
  grid # 4    48124    48124    48124    48124    48124    48124    48124
   
  number of gridpoints: 
     atom       C36      C37      C38      C39      C40      C41      C42
  grid # 1       92       96       92       96       92       96       92
  grid # 2      334      338      334      335      335      339      335
  grid # 3       15       25       18       16       18       30       19
  grid # 4    48124    48124    48124    48124    48124    48124    48124
   
  number of gridpoints: 
     atom       C43      C44      C45      C46      C47      C48      C49
  grid # 1       96       92       95       94       94       94       92
  grid # 2      337      336      332      335      336      336      335
  grid # 3       19       25       10       41       47       47       29
  grid # 4    48124    48124    48124    48124    48124    48124    48124
   
  number of gridpoints: 
     atom       C50      C51      C52      C53      C54      C55      C56
  grid # 1       93       93       93       93       93       93       94
  grid # 2      333      335      330      334      334      335      335
  grid # 3       33       30       28       29       28       39       47
  grid # 4    48124    48124    48124    48124    48124    48124    48124
   
  number of gridpoints: 
     atom       C57      C58      C59      C60      C61      C62      C63
  grid # 1       94       93       93       93       94       93       92
  grid # 2      336      333      333      330      335      335      333
  grid # 3       43       33       31       25       42       39       21
  grid # 4    48124    48124    48124    48124    48124    48124    48124
   
  number of gridpoints: 
     atom       C64      C65      C66      C67      C68      C69      C70
  grid # 1       96       95       97       95       95       97       91
  grid # 2      333      328      349      332      332      332      322
  grid # 3       34       18        9       17       33       38        7
  grid # 4    48124    48124    48124    48124    48124    48124    48124
   
  number of gridpoints: 
     atom       N71      S72      O73      O74      C75      C76      C77
  grid # 1       98      444      121      121       98       96       96
  grid # 2      359      444      489      482      356      332      332
  grid # 3       10       12      171      183       37       40       43
  grid # 4    47928    48492    47716    47716    48124    48124    48124
   
  number of gridpoints: 
     atom       C78      C79      N80      N81      C82      C83      C84
  grid # 1       96       96      110       96       94       93       93
  grid # 2      331      340      409      343      326      329      329
  grid # 3       41       38       44        7        6       16       17
  grid # 4    48124    48124    47928    47928    48124    48124    48124
   
  number of gridpoints: 
     atom       C85      H86      H87      H88      H89      H90      H91
  grid # 1       91      112      118      118      109      118      113
  grid # 2      320      432      452      446      425      453      435
  grid # 3        7      230      417      360      180      423      238
  grid # 4    48124    48426    48426    48426    48426    48426    48426
   
  number of gridpoints: 
     atom       H92      H93      H94      H95      H96      H97      H98
  grid # 1      111      117      117      117       99      112      111
  grid # 2      425      443      449      449      388      436      433
  grid # 3      181      334      396      395       57      256      240
  grid # 4    48426    48426    48426    48426    48426    48426    48426
   
  number of gridpoints: 
     atom       H99     H100     H101     H102     H103     H104     H105
  grid # 1      112      106      112      110      112      111      112
  grid # 2      437      414      432      431      439      430      437
  grid # 3      248       85      249      198      269      210      259
  grid # 4    48426    48426    48426    48426    48426    48426    48426
   
  number of gridpoints: 
     atom      H106     H107     H108     H109     H110     H111     H112
  grid # 1      110      111      104      118      118      118      117
  grid # 2      426      435      409      452      453      453      448
  grid # 3      201      231       62      415      424      424      360
  grid # 4    48426    48426    48426    48426    48426    48426    48426
   
  number of gridpoints: 
     atom      H113     H114     H115     H116     H117     H118     H119
  grid # 1      114      111      114      117      116      118      118
  grid # 2      438      430      443      450      446      453      453
  grid # 3      294      210      305      374      334      418      424
  grid # 4    48426    48426    48426    48426    48426    48426    48426
   
  number of gridpoints: 
     atom      H120     H121     H122     H123     H124     H125     H126
  grid # 1      118      117      116      115      118      118      112
  grid # 2      453      450      448      443      452      452      438
  grid # 3      419      375      356      303      419      422      263
  grid # 4    48426    48426    48426    48426    48426    48426    48426
   
  number of gridpoints: 
     atom      H127     H128     H129     H130     H131     H132     H133
  grid # 1      118      110      107      114      118       98      110
  grid # 2      450      423      415      439      451      395      431
  grid # 3      414      170      100      292      419       34      204
  grid # 4    48426    48426    48426    48426    48426    48426    48426
   
  number of gridpoints: 
     atom      H134     H135     H136     H137     H138     H139     H140
  grid # 1      116      114      111      103      114      117      114
  grid # 2      449      438      431      400      451      459      447
  grid # 3      374      269      212       83      326      443      318
  grid # 4    48426    48426    48426    48426    48426    48426    48426
   
  number of gridpoints: 
     atom      H141    total
  grid # 1      104    16036
  grid # 2      407    54631
  grid # 3       77    18492
  grid # 4    48426  6771080
   
  Peak memory usage:    666 Mb
  
  end of program grid
   
 Time(grid)  user:      981.0  user+sys:      984.0  wallclock:     2065.3
  
  start of program rwr
  
  Peak memory usage:    648 Mb
  
  end of program rwr
   
 Time(rwr)  user:       65.0  user+sys:       71.0  wallclock:      142.7
  
  start of program scf
  
 number of electrons..........        616
 number of alpha electrons....        308
 number of beta electrons.....        308
 number of orbitals, total....       1565
 number of doubly-occ'd orbs..        308
 number of open shell orbs....          0
 number of occupied orbitals..        308
 number of virtual orbitals...       1257
 number of hamiltonians.......          1
 number of shells.............          1
 SCF type: DFT=M06-2X
  
       i  u  d  i  g                   
       t  p  i  c  r                                 RMS    maximum
       e  d  i  u  i                       energy  density   DIIS  
       r  t  s  t  d       total energy    change  change    error 
  
etot    1  N  N  1  U   -4700.03034695374           2.3E-03  1.2E-01
etot    2  N  Y  1  U   -4706.76415547308  6.7E+00  2.4E-03  8.8E-02
etot    3  N  Y  1  U   -4705.42402234790 -1.3E+00  2.1E-03  9.4E-02
etot    4  N  Y  1  U   -4709.73870947343  4.3E+00  5.8E-04  4.4E-02
etot    5  N  Y  1  U   -4709.96063923007  2.2E-01  2.5E-04  1.2E-02
etot    6  N  Y  1  U   -4710.02225487036  6.2E-02  8.0E-05  5.8E-03
etot    7  N  Y  1  U   -4710.03214562569  9.9E-03  2.2E-05  1.1E-03
etot    8  N  Y  1  U   -4710.03291908534  7.7E-04  9.6E-06  3.3E-04
etot    9  N  Y  1  U   -4710.03299627270  7.7E-05  4.3E-06  2.1E-04
etot   10  N  N  1  U   -4710.03301861719  2.2E-05  0.0E+00  0.0E+00
  
  
 Energy components, in hartrees:
   (A)  Nuclear repulsion............   17461.30583620319
   (E)  Total one-electron terms.....  -41260.19355100265
   (F)    Electron-nuclear...........  -45935.55687003166
   (H)    Kinetic....................    4675.36331902900
   (I)  Total two-electron terms.....   19088.85469618227
   (J)    Coulomb....................   19662.19911849846
   (K)    Exchange+Correlation.......    -573.34442231619
   (L)  Electronic energy............  -22171.33885482038  (E+I)
   (M)  -V/T.........................       2.00741540223  (-(A+F+I)/H)
   (N)  Total energy.................   -4710.03301861719  (A+L)
  
 SCFE: SCF energy: DFT(m06-2x)     -4710.03301861719 hartrees   iterations:  10
  
 
 HOMO energy:    -0.25208
 LUMO energy:    -0.06044
 
  Orbital energies (hartrees): 
   -90.16393   -78.18545   -67.00556   -67.00338   -19.67353   -19.67175
   -19.64500   -19.64347   -19.59062   -19.59025   -14.81806   -14.79729
   -14.78139   -10.65155   -10.62433   -10.61787   -10.61651   -10.61639
   -10.59760   -10.59114   -10.58482   -10.58154   -10.58036   -10.57447
   -10.56920   -10.56878   -10.56841   -10.56762   -10.56689   -10.56453
   -10.56430   -10.56401   -10.56283   -10.56281   -10.56265   -10.56178
   -10.55854   -10.55800   -10.55715   -10.55547   -10.55531   -10.55500
   -10.55402   -10.55168   -10.55128   -10.55106   -10.55038   -10.54998
   -10.54909   -10.54903   -10.54833   -10.54826   -10.54724   -10.54718
   -10.54689   -10.54674   -10.54585   -10.54558   -10.54506   -10.54472
   -10.54439   -10.54398   -10.54308   -10.54127   -10.54113   -10.54095
   -10.54011   -10.53981   -10.53973   -10.53967   -10.53853   -10.53849
   -10.53834   -10.53825   -10.53805   -10.53672   -10.53616   -10.53345
   -10.53232   -10.53171   -10.52776   -10.52766   -10.52742   -10.52346
   -10.52187    -8.47449    -6.96474    -6.39659    -6.39562    -6.39506
    -5.53711    -5.53451    -5.08340    -5.08220    -5.08058    -3.84688
    -3.84650    -3.84642    -3.84424    -3.84401    -3.84382    -1.23520
    -1.21391    -1.16935    -1.12195    -1.10798    -1.08915    -1.07533
    -1.05570    -1.03928    -0.97959    -0.97159    -0.96557    -0.94376
    -0.93994    -0.93874    -0.93594    -0.93289    -0.93084    -0.91917
    -0.91832    -0.90921    -0.89471    -0.88997    -0.88829    -0.87388
    -0.85270    -0.85241    -0.84213    -0.83967    -0.83826    -0.83482
    -0.83171    -0.83020    -0.82870    -0.82802    -0.82635    -0.82545
    -0.82502    -0.82359    -0.82191    -0.82129    -0.81801    -0.81778
    -0.80511    -0.79875    -0.74615    -0.73408    -0.73117    -0.70849
    -0.70458    -0.70078    -0.70040    -0.69468    -0.68692    -0.68261
    -0.67689    -0.67488    -0.67395    -0.67017    -0.66879    -0.66807
    -0.66741    -0.66593    -0.66176    -0.66069    -0.65937    -0.65781
    -0.65687    -0.65554    -0.65081    -0.64682    -0.64126    -0.63885
    -0.61838    -0.60680    -0.60491    -0.59963    -0.59691    -0.59607
    -0.58060    -0.57882    -0.57641    -0.57520    -0.57307    -0.57277
    -0.56991    -0.56907    -0.55954    -0.55855    -0.55235    -0.54247
    -0.54065    -0.53801    -0.53657    -0.53559    -0.52728    -0.52607
    -0.52463    -0.52204    -0.51793    -0.51580    -0.51367    -0.51324
    -0.51056    -0.50818    -0.50567    -0.50509    -0.50290    -0.50027
    -0.49937    -0.49727    -0.49609    -0.49569    -0.49500    -0.49411
    -0.49261    -0.49223    -0.49077    -0.48946    -0.48700    -0.48640
    -0.48553    -0.48245    -0.48196    -0.48081    -0.47863    -0.47764
    -0.47552    -0.47227    -0.46964    -0.46858    -0.46773    -0.46428
    -0.46129    -0.45506    -0.45378    -0.44980    -0.44879    -0.44711
    -0.44609    -0.44476    -0.44294    -0.43831    -0.43347    -0.43055
    -0.42755    -0.42554    -0.42415    -0.42016    -0.41899    -0.41845
    -0.41558    -0.41369    -0.41264    -0.41241    -0.40602    -0.40304
    -0.39854    -0.39725    -0.39270    -0.39105    -0.39078    -0.38877
    -0.38854    -0.38627    -0.38492    -0.38363    -0.38279    -0.38000
    -0.37852    -0.37771    -0.37501    -0.37362    -0.36610    -0.35649
    -0.35233    -0.34991    -0.34517    -0.34247    -0.34017    -0.33807
    -0.33592    -0.33500    -0.33463    -0.33125    -0.32969    -0.32778
    -0.32289    -0.31506    -0.31408    -0.30566    -0.29988    -0.29931
    -0.29692    -0.29347    -0.29292    -0.29249    -0.28999    -0.28981
    -0.28672    -0.28618    -0.28312    -0.28137    -0.27886    -0.27733
    -0.26985    -0.25208    -0.06044    -0.02005    -0.01217     0.00253
     0.00505     0.01253     0.01637     0.01737     0.02532     0.02543
 
  Peak memory usage:    844 Mb
  
  end of program scf
   
 Time(scf)  user:    24456.0  user+sys:    24587.0  wallclock:    46587.2
  
  start of program ch
  
  gridpoints used for charge fit        15979
    out of a possible maximum of        18492
  
   Electrostatic potential fitting constrained to reproduce
     total charge:                yes
     dipole moment:               no 
     traceless quadrupole moment: no 
     traceless octapole moment:   no 
  
  Atomic charges from electrostatic potential: 
   
 Atom       C1           C2           C3           C4           C5      
 Charge   -0.10133     -0.04793     -0.17657      0.19957      0.09271
   
 Atom       C6           C7           C8           C9           C10     
 Charge   -0.22532     -0.34359     -0.10414     -0.00252     -0.15482
   
 Atom       C11          O12          Si13         C14          C15     
 Charge    0.10149     -0.32107      0.00220      0.09188      0.20403
   
 Atom       C16          C17          C18          C19          C20     
 Charge    0.30213     -0.17034     -0.43924     -0.29458     -0.02369
   
 Atom       Si21         O22          C23          C24          P25     
 Charge    0.20493     -0.32565     -0.18311     -0.07608      1.06001
   
 Atom       O26          O27          C28          C29          C30     
 Charge   -0.61439     -0.64053      0.07080      0.13740      0.08443
   
 Atom       C31          C32          C33          C34          C35     
 Charge   -0.00721      0.11673     -0.02427     -0.12023     -0.15898
   
 Atom       C36          C37          C38          C39          C40     
 Charge   -0.04936     -0.19016     -0.19389     -0.14547     -0.07087
   
 Atom       C41          C42          C43          C44          C45     
 Charge   -0.14969     -0.25777     -0.18108     -0.13982      0.03643
   
 Atom       C46          C47          C48          C49          C50     
 Charge   -0.15787     -0.13020     -0.12692     -0.22466     -0.08890
   
 Atom       C51          C52          C53          C54          C55     
 Charge   -0.14613     -0.09166     -0.18457     -0.08310     -0.16716
   
 Atom       C56          C57          C58          C59          C60     
 Charge   -0.12604     -0.13211     -0.04925     -0.22777     -0.05479
   
 Atom       C61          C62          C63          C64          C65     
 Charge   -0.17053     -0.14550     -0.13093     -0.11251     -0.32236
   
 Atom       C66          C67          C68          C69          C70     
 Charge    0.51482     -0.27591     -0.10792     -0.15140     -0.12749
   
 Atom       N71          S72          O73          O74          C75     
 Charge   -0.39025      0.63667     -0.41185     -0.43512      0.40077
   
 Atom       C76          C77          C78          C79          N80     
 Charge   -0.31110      0.01662     -0.20075      0.17110     -0.37662
   
 Atom       N81          C82          C83          C84          C85     
 Charge   -0.03430     -0.09360     -0.23254     -0.21328      0.12643
   
 Atom       H86          H87          H88          H89          H90     
 Charge    0.11223      0.14414      0.14320      0.16063      0.13006
   
 Atom       H91          H92          H93          H94          H95     
 Charge    0.13762      0.19230      0.15806      0.14600      0.12199
   
 Atom       H96          H97          H98          H99          H100    
 Charge    0.32053      0.11782      0.09891      0.08620      0.10653
   
 Atom       H101         H102         H103         H104         H105    
 Charge    0.13034      0.11839      0.08883      0.11605      0.15295
   
 Atom       H106         H107         H108         H109         H110    
 Charge    0.07511      0.11044      0.05056      0.13456      0.13088
   
 Atom       H111         H112         H113         H114         H115    
 Charge    0.13283      0.13903      0.12497      0.12635      0.11605
   
 Atom       H116         H117         H118         H119         H120    
 Charge    0.13175      0.11754      0.13780      0.12928      0.12786
   
 Atom       H121         H122         H123         H124         H125    
 Charge    0.12154      0.13420      0.10924      0.13540      0.13558
   
 Atom       H126         H127         H128         H129         H130    
 Charge    0.10656      0.14779      0.20232      0.12040      0.13225
   
 Atom       H131         H132         H133         H134         H135    
 Charge    0.14507      0.15102      0.17613      0.12887      0.12808
   
 Atom       H136         H137         H138         H139         H140    
 Charge    0.08047      0.25232      0.17475      0.18196      0.19405
   
 Atom       H141    
 Charge    0.07184
  
  sum of atomic charges:     0.000000
   
 RMS Error   9.67E-04 hartrees
 
  Peak memory usage:    584 Mb
  
  end of program ch
   
 Time(ch)  user:       17.0  user+sys:       18.0  wallclock:       19.8
  
  start of program post
  
  Writing input files for PBF
  Peak memory usage:    534 Mb
  
  end of program post
   
 Time(post)  user:        0.0  user+sys:        0.0  wallclock:        0.2

  start of program pbf

Pbf Version 4.00

Molecular surface area:      789.51305   [A2]
Reaction field energy:       -14.76071   [kT]
  Peak memory usage: 556 Mb

  end of program pbf

 Time(pbf)  user:       13.8  user+sys:       13.9  wallclock:       14.4
  
  start of program solv
  
   number of surface charges from PBF   12864
   sum of surface charges     -0.00027
   
  nuclear repulsion energy.......   17461.305836203 hartrees
  Peak memory usage:    694 Mb
  
  end of program solv
   
 Time(solv)  user:       34.0  user+sys:       34.0  wallclock:       34.9
  
  start of program scf
  
  
       i  u  d  i  g                   
       t  p  i  c  r                                 RMS    maximum
       e  d  i  u  i                       energy  density   DIIS  
       r  t  s  t  d       total energy    change  change    error 
  
etot    1  N  N  1  U   -4710.06448177307           5.0E-05  8.0E-04
etot    2  N  Y  1  U   -4710.06513277334  6.5E-04  1.6E-05  8.2E-04
etot    3  N  Y  1  U   -4710.06532688374  1.9E-04  5.7E-06  4.3E-04
etot    4  N  N  1  U   -4710.06537142515  4.5E-05  0.0E+00  0.0E+00
  
  
 Energy components, in hartrees:
   (A)  Total zero-electron terms....   17463.39753649229
   (B)    Nuclear-nuclear............   17461.30583620319
   (C)    Nuclear-solvent............       2.09170028910
   (E)  Total one-electron terms.....  -41263.61945742553
   (F)    Electron-nuclear...........  -45936.89199903759
   (G)    Electron-solvent...........      -2.12494210903
   (H)    Kinetic....................    4675.39748372108
   (I)  Total two-electron terms.....   19090.15654950808
   (J)    Coulomb....................   19663.51697523738
   (K)    Exchange+Correlation.......    -573.36042572930
   (L)  Electronic energy............  -22173.46290791744  (E+I)
   (N)  Total quantum mech. energy...   -4710.06537142515  (A+L)
   (O)  Gas phase energy.............   -4710.03301861719
   (P)  Solution phase energy........   -4710.04875051519  (Q+R+S)
   (Q)    Total solute energy........   -4710.03212960523  (N-C-G)
   (R)    Total solvent energy.......      -0.01662090996  (C/2+G/2)
   (S)    Solute cavity energy.......       0.00000000000
   (U)  Reorganization energy........       0.00088901196  (Q-O)
   (V)  Solvation energy.............      -0.01573189800  (P-O)
  
 SCFE:  Solution phase energy: DFT(m06-2x)      -4710.04875051519 hartrees
        SCF iterations:   4
  
 
 HOMO energy:    -0.25307
 LUMO energy:    -0.05969
 
  Orbital energies (hartrees): 
   -90.16892   -78.18636   -67.00737   -67.00580   -19.67478   -19.67376
   -19.65090   -19.64978   -19.59165   -19.59130   -14.81628   -14.79891
   -14.78191   -10.65025   -10.62581   -10.62011   -10.61719   -10.61523
   -10.59790   -10.59024   -10.58381   -10.58186   -10.57856   -10.57394
   -10.56951   -10.56918   -10.56717   -10.56708   -10.56492   -10.56477
   -10.56390   -10.56310   -10.56266   -10.56264   -10.56093   -10.56055
   -10.55985   -10.55887   -10.55739   -10.55624   -10.55466   -10.55399
   -10.55367   -10.55351   -10.55281   -10.55263   -10.55161   -10.55156
   -10.55049   -10.55023   -10.54958   -10.54930   -10.54897   -10.54892
   -10.54891   -10.54784   -10.54768   -10.54720   -10.54713   -10.54661
   -10.54625   -10.54605   -10.54510   -10.54487   -10.54329   -10.54292
   -10.54207   -10.54197   -10.54166   -10.54145   -10.54094   -10.54082
   -10.54045   -10.54028   -10.54010   -10.53935   -10.53742   -10.53733
   -10.53547   -10.53468   -10.53101   -10.52967   -10.52861   -10.52722
   -10.52417    -8.47942    -6.96569    -6.40149    -6.40063    -6.39996
    -5.53893    -5.53696    -5.08435    -5.08314    -5.08152    -3.84870
    -3.84832    -3.84824    -3.84667    -3.84646    -3.84627    -1.24085
    -1.21526    -1.17089    -1.12820    -1.10696    -1.08997    -1.07628
    -1.05683    -1.04032    -0.98066    -0.97039    -0.96688    -0.94584
    -0.94321    -0.93986    -0.93753    -0.93631    -0.93382    -0.92014
    -0.91806    -0.91020    -0.89525    -0.88931    -0.88858    -0.87321
    -0.85332    -0.85124    -0.84366    -0.84197    -0.83704    -0.83678
    -0.83457    -0.83134    -0.83005    -0.82919    -0.82826    -0.82751
    -0.82662    -0.82520    -0.82460    -0.82289    -0.82137    -0.82036
    -0.80598    -0.79961    -0.74608    -0.73507    -0.73119    -0.70886
    -0.70537    -0.70102    -0.69934    -0.69602    -0.68806    -0.68123
    -0.67817    -0.67635    -0.67602    -0.67144    -0.67069    -0.66986
    -0.66746    -0.66660    -0.66356    -0.66275    -0.65997    -0.65940
    -0.65846    -0.65547    -0.65353    -0.64731    -0.64103    -0.63851
    -0.61946    -0.60812    -0.60616    -0.60154    -0.59747    -0.59629
    -0.58141    -0.58006    -0.57716    -0.57606    -0.57506    -0.57475
    -0.57127    -0.56946    -0.56044    -0.55944    -0.55246    -0.54330
    -0.54241    -0.54160    -0.53658    -0.53649    -0.52773    -0.52634
    -0.52461    -0.52227    -0.51813    -0.51636    -0.51542    -0.51387
    -0.51122    -0.50896    -0.50654    -0.50578    -0.50384    -0.50191
    -0.49901    -0.49831    -0.49766    -0.49568    -0.49550    -0.49470
    -0.49428    -0.49348    -0.49203    -0.49062    -0.48942    -0.48660
    -0.48509    -0.48347    -0.48268    -0.48163    -0.48072    -0.47820
    -0.47627    -0.47405    -0.47109    -0.47007    -0.46617    -0.46455
    -0.46221    -0.45530    -0.45471    -0.45120    -0.44983    -0.44858
    -0.44712    -0.44571    -0.44363    -0.43942    -0.43482    -0.43164
    -0.42923    -0.42679    -0.42592    -0.42286    -0.42040    -0.42032
    -0.41756    -0.41715    -0.41464    -0.41356    -0.40699    -0.40441
    -0.39965    -0.39805    -0.39660    -0.39236    -0.39203    -0.39092
    -0.38929    -0.38772    -0.38652    -0.38553    -0.38488    -0.38237
    -0.38108    -0.38067    -0.37718    -0.37535    -0.36735    -0.35663
    -0.35389    -0.35137    -0.34620    -0.34374    -0.34167    -0.33951
    -0.33765    -0.33733    -0.33678    -0.33225    -0.32935    -0.32889
    -0.32477    -0.31412    -0.31373    -0.30765    -0.30281    -0.30266
    -0.30055    -0.29600    -0.29541    -0.29443    -0.29321    -0.29102
    -0.28976    -0.28829    -0.28514    -0.28328    -0.28020    -0.27876
    -0.27134    -0.25307    -0.05969    -0.02075    -0.01291     0.00057
     0.00469     0.01099     0.01562     0.01726     0.02263     0.02440
 
  Peak memory usage:    833 Mb
  
  end of program scf
   
 Time(scf)  user:     6895.0  user+sys:     6926.0  wallclock:     7365.6
  
  start of program sole
  
    SCRF                   solvation energy
  iteration          Hartrees            kcal/mol
     0               0.0000000            0.0000
     1              -0.0157319           -9.8719
  
  solvation energy not yet converged... 
  
  Peak memory usage:    634 Mb
  
  end of program sole
   
 Time(sole)  user:        0.0  user+sys:        0.0  wallclock:        0.2
  
  start of program ch
  
  gridpoints used for charge fit        15979
    out of a possible maximum of        15979
  
   Electrostatic potential fitting constrained to reproduce
     total charge:                yes
     dipole moment:               no 
     traceless quadrupole moment: no 
     traceless octapole moment:   no 
  
  Atomic charges from electrostatic potential: 
   
 Atom       C1           C2           C3           C4           C5      
 Charge   -0.10534     -0.05182     -0.18331      0.20245      0.09413
   
 Atom       C6           C7           C8           C9           C10     
 Charge   -0.23259     -0.36338     -0.11155     -0.01586     -0.15611
   
 Atom       C11          O12          Si13         C14          C15     
 Charge    0.12784     -0.31428     -0.02440      0.09826      0.19536
   
 Atom       C16          C17          C18          C19          C20     
 Charge    0.30682     -0.17263     -0.45138     -0.30647     -0.01208
   
 Atom       Si21         O22          C23          C24          P25     
 Charge    0.18554     -0.32125     -0.18862     -0.08063      1.05285
   
 Atom       O26          O27          C28          C29          C30     
 Charge   -0.60726     -0.63567      0.07152      0.15601      0.09439
   
 Atom       C31          C32          C33          C34          C35     
 Charge    0.00029      0.12512     -0.01920     -0.12425     -0.15661
   
 Atom       C36          C37          C38          C39          C40     
 Charge   -0.05100     -0.20595     -0.20100     -0.14783     -0.07607
   
 Atom       C41          C42          C43          C44          C45     
 Charge   -0.15476     -0.26931     -0.18535     -0.14406      0.04365
   
 Atom       C46          C47          C48          C49          C50     
 Charge   -0.16379     -0.13800     -0.13732     -0.22789     -0.09897
   
 Atom       C51          C52          C53          C54          C55     
 Charge   -0.15045     -0.10040     -0.19074     -0.09361     -0.17351
   
 Atom       C56          C57          C58          C59          C60     
 Charge   -0.13439     -0.13947     -0.05237     -0.23813     -0.06033
   
 Atom       C61          C62          C63          C64          C65     
 Charge   -0.18002     -0.15167     -0.14153     -0.11714     -0.32745
   
 Atom       C66          C67          C68          C69          C70     
 Charge    0.51735     -0.28118     -0.11216     -0.15500     -0.13073
   
 Atom       N71          S72          O73          O74          C75     
 Charge   -0.36310      0.64252     -0.43001     -0.45293      0.39627
   
 Atom       C76          C77          C78          C79          N80     
 Charge   -0.30934      0.01938     -0.20286      0.16384     -0.37908
   
 Atom       N81          C82          C83          C84          C85     
 Charge   -0.04178     -0.09500     -0.22749     -0.22748      0.13880
   
 Atom       H86          H87          H88          H89          H90     
 Charge    0.11328      0.15239      0.14995      0.16725      0.13868
   
 Atom       H91          H92          H93          H94          H95     
 Charge    0.13974      0.19825      0.16665      0.15364      0.13023
   
 Atom       H96          H97          H98          H99          H100    
 Charge    0.30847      0.12175      0.09605      0.08752      0.11218
   
 Atom       H101         H102         H103         H104         H105    
 Charge    0.13402      0.11751      0.09109      0.11805      0.15761
   
 Atom       H106         H107         H108         H109         H110    
 Charge    0.07273      0.11357      0.04961      0.14224      0.13906
   
 Atom       H111         H112         H113         H114         H115    
 Charge    0.14141      0.14551      0.13254      0.12626      0.12449
   
 Atom       H116         H117         H118         H119         H120    
 Charge    0.13998      0.12432      0.14586      0.13756      0.13529
   
 Atom       H121         H122         H123         H124         H125    
 Charge    0.12810      0.14287      0.11559      0.14299      0.14327
   
 Atom       H126         H127         H128         H129         H130    
 Charge    0.10785      0.15569      0.20115      0.12724      0.13928
   
 Atom       H131         H132         H133         H134         H135    
 Charge    0.15311      0.14216      0.18012      0.13733      0.13494
   
 Atom       H136         H137         H138         H139         H140    
 Charge    0.08530      0.25879      0.18541      0.18952      0.19930
   
 Atom       H141    
 Charge    0.06820
  
  sum of atomic charges:     0.000000
   
 RMS Error   9.80E-04 hartrees
 
  Peak memory usage:    583 Mb
  
  end of program ch
   
 Time(ch)  user:       17.0  user+sys:       18.0  wallclock:       19.6
  
  start of program post
  
  Writing input files for PBF
  Peak memory usage:    534 Mb
  
  end of program post
   
 Time(post)  user:        0.0  user+sys:        0.0  wallclock:        0.2

  start of program pbf

Pbf Version 4.00

Molecular surface area:      789.51305   [A2]
Reaction field energy:       -16.84106   [kT]
  Peak memory usage: 556 Mb

  end of program pbf

 Time(pbf)  user:       13.7  user+sys:       13.7  wallclock:       14.0
  
  start of program solv
  
   number of surface charges from PBF   12864
   sum of surface charges     -0.00028
   
  nuclear repulsion energy.......   17461.305836203 hartrees
  Peak memory usage:    694 Mb
  
  end of program solv
   
 Time(solv)  user:       35.0  user+sys:       35.0  wallclock:       36.3
  
  start of program scf
  
  
       i  u  d  i  g                   
       t  p  i  c  r                                 RMS    maximum
       e  d  i  u  i                       energy  density   DIIS  
       r  t  s  t  d       total energy    change  change    error 
  
etot    1  N  N  1  U   -4710.06759421812           6.4E-06  8.1E-05
etot    2  N  N  1  U   -4710.06760213938  7.9E-06  0.0E+00  0.0E+00
  
  
 Energy components, in hartrees:
   (A)  Total zero-electron terms....   17463.63277879135
   (B)    Nuclear-nuclear............   17461.30583620319
   (C)    Nuclear-solvent............       2.32694258816
   (E)  Total one-electron terms.....  -41263.93050504212
   (F)    Electron-nuclear...........  -45937.00433495613
   (G)    Electron-solvent...........      -2.36264938940
   (H)    Kinetic....................    4675.43647930342
   (I)  Total two-electron terms.....   19090.23012411139
   (J)    Coulomb....................   19663.59726639619
   (K)    Exchange+Correlation.......    -573.36714228480
   (L)  Electronic energy............  -22173.70038093073  (E+I)
   (N)  Total quantum mech. energy...   -4710.06760213938  (A+L)
   (O)  Gas phase energy.............   -4710.03301861719
   (P)  Solution phase energy........   -4710.04974873876  (Q+R+S)
   (Q)    Total solute energy........   -4710.03189533813  (N-C-G)
   (R)    Total solvent energy.......      -0.01785340062  (C/2+G/2)
   (S)    Solute cavity energy.......       0.00000000000
   (U)  Reorganization energy........       0.00112327906  (Q-O)
   (V)  Solvation energy.............      -0.01673012157  (P-O)
  
 SCFE:  Solution phase energy: DFT(m06-2x)      -4710.04974873876 hartrees
        SCF iterations:   2
  
 
 HOMO energy:    -0.29203
 LUMO energy:    -0.06029
 
  Orbital energies (hartrees): 
   -76.46544   -74.05405   -58.67845   -45.54785   -30.18829   -23.22014
   -23.12926   -22.23835   -17.01678   -16.57371   -16.03203   -14.13431
   -13.66373   -13.10880   -12.65038   -12.64700   -12.36401   -12.13859
   -11.97444   -11.88850   -11.79384   -11.68670   -11.50656   -11.45818
   -11.18225   -10.86111   -10.77790   -10.75338   -10.74514   -10.73215
   -10.64762   -10.63332   -10.63021   -10.62831   -10.61870   -10.59012
   -10.56427   -10.56163   -10.55611   -10.55460   -10.55157   -10.55094
   -10.54758   -10.54704   -10.52833   -10.52770   -10.52747   -10.52213
   -10.52168   -10.51997   -10.51788   -10.51661   -10.51511   -10.51202
   -10.50784   -10.49953   -10.49031   -10.49003   -10.48369   -10.47366
   -10.46530   -10.45479   -10.43339   -10.42972   -10.41307   -10.39654
   -10.39626   -10.38647   -10.38044   -10.30325   -10.25018   -10.18686
   -10.18147   -10.17436   -10.14856   -10.12216   -10.11020    -9.99171
    -9.97996    -9.80761    -9.71815    -9.55653    -9.37908    -9.37203
    -9.29960    -9.27105    -8.72306    -8.71496    -8.64025    -7.50528
    -7.27926    -6.99527    -6.94039    -6.91635    -6.57934    -6.50327
    -6.43292    -6.42695    -4.77207    -4.13666    -3.87862    -1.19660
    -1.06805    -1.05432    -1.03804    -0.97966    -0.97428    -0.97238
    -0.95829    -0.95198    -0.94273    -0.91876    -0.91757    -0.91679
    -0.90814    -0.90292    -0.89988    -0.89845    -0.89621    -0.89504
    -0.88937    -0.88916    -0.88809    -0.87198    -0.86673    -0.85969
    -0.85924    -0.85752    -0.85054    -0.85027    -0.83484    -0.82419
    -0.82419    -0.81936    -0.81362    -0.81251    -0.81123    -0.79059
    -0.79017    -0.77278    -0.77024    -0.75262    -0.74417    -0.73704
    -0.72266    -0.71906    -0.71637    -0.71369    -0.69855    -0.69570
    -0.67899    -0.67882    -0.66392    -0.66158    -0.65806    -0.64590
    -0.63793    -0.63145    -0.62964    -0.62761    -0.62288    -0.62143
    -0.61949    -0.61811    -0.61560    -0.61172    -0.60617    -0.59763
    -0.59415    -0.58261    -0.57670    -0.57537    -0.56449    -0.56365
    -0.56256    -0.56048    -0.56031    -0.55934    -0.55896    -0.55728
    -0.55404    -0.54957    -0.54638    -0.54621    -0.54456    -0.54061
    -0.53910    -0.53897    -0.53365    -0.53290    -0.53066    -0.53043
    -0.52843    -0.52454    -0.52388    -0.52106    -0.52071    -0.51897
    -0.51858    -0.51835    -0.51573    -0.51566    -0.51513    -0.51503
    -0.51456    -0.51176    -0.51113    -0.50897    -0.50896    -0.50749
    -0.50745    -0.50627    -0.50029    -0.49926    -0.49673    -0.49605
    -0.49589    -0.49477    -0.49234    -0.49091    -0.48918    -0.48907
    -0.48805    -0.48742    -0.48734    -0.48619    -0.48607    -0.48539
    -0.48448    -0.48319    -0.48299    -0.48286    -0.48224    -0.48109
    -0.48064    -0.48022    -0.48010    -0.47897    -0.47792    -0.47792
    -0.47768    -0.47739    -0.47718    -0.47619    -0.47603    -0.47448
    -0.47361    -0.47187    -0.47110    -0.47013    -0.46809    -0.46640
    -0.46614    -0.46606    -0.46459    -0.46421    -0.46381    -0.46367
    -0.46162    -0.46105    -0.46050    -0.45644    -0.45314    -0.45306
    -0.45268    -0.45266    -0.45187    -0.45000    -0.44978    -0.44870
    -0.44836    -0.44830    -0.44710    -0.44491    -0.44196    -0.44160
    -0.43827    -0.43826    -0.43704    -0.43490    -0.43381    -0.43051
    -0.42849    -0.42826    -0.42743    -0.42666    -0.42616    -0.42008
    -0.41900    -0.41865    -0.41745    -0.41013    -0.41010    -0.40449
    -0.40342    -0.40140    -0.40085    -0.40064    -0.39888    -0.39781
    -0.39129    -0.38929    -0.38604    -0.38251    -0.34925    -0.34452
    -0.33159    -0.29203    -0.06029    -0.02106    -0.01344     0.00041
     0.00434     0.01074     0.01529     0.01719     0.02239     0.02420
 
  Peak memory usage:    833 Mb
  
  end of program scf
   
 Time(scf)  user:     2333.0  user+sys:     2344.0  wallclock:     2474.4
  
  start of program sole
  
    SCRF                   solvation energy
  iteration          Hartrees            kcal/mol
     0               0.0000000            0.0000
     1              -0.0157319           -9.8719
     2              -0.0167301          -10.4983
  
  solvation energy not yet converged... 
  
  Peak memory usage:    634 Mb
  
  end of program sole
   
 Time(sole)  user:        0.0  user+sys:        0.0  wallclock:        0.2
  
  start of program ch
  
  gridpoints used for charge fit        15979
    out of a possible maximum of        15979
  
   Electrostatic potential fitting constrained to reproduce
     total charge:                yes
     dipole moment:               no 
     traceless quadrupole moment: no 
     traceless octapole moment:   no 
  
  Atomic charges from electrostatic potential: 
   
 Atom       C1           C2           C3           C4           C5      
 Charge   -0.10498     -0.05213     -0.18466      0.20214      0.09568
   
 Atom       C6           C7           C8           C9           C10     
 Charge   -0.23355     -0.36583     -0.11248     -0.01819     -0.15544
   
 Atom       C11          O12          Si13         C14          C15     
 Charge    0.12926     -0.31369     -0.02559      0.10058      0.19414
   
 Atom       C16          C17          C18          C19          C20     
 Charge    0.30475     -0.17321     -0.45233     -0.30774     -0.01001
   
 Atom       Si21         O22          C23          C24          P25     
 Charge    0.18514     -0.32017     -0.18949     -0.08091      1.05109
   
 Atom       O26          O27          C28          C29          C30     
 Charge   -0.60638     -0.63318      0.06988      0.15899      0.09683
   
 Atom       C31          C32          C33          C34          C35     
 Charge    0.00064      0.12723     -0.01931     -0.12434     -0.15582
   
 Atom       C36          C37          C38          C39          C40     
 Charge   -0.05274     -0.20876     -0.20273     -0.14861     -0.07741
   
 Atom       C41          C42          C43          C44          C45     
 Charge   -0.15491     -0.27108     -0.18538     -0.14553      0.04725
   
 Atom       C46          C47          C48          C49          C50     
 Charge   -0.16407     -0.13886     -0.13869     -0.22791     -0.10025
   
 Atom       C51          C52          C53          C54          C55     
 Charge   -0.14990     -0.10089     -0.19163     -0.09551     -0.17396
   
 Atom       C56          C57          C58          C59          C60     
 Charge   -0.13567     -0.14053     -0.05284     -0.24020     -0.06191
   
 Atom       C61          C62          C63          C64          C65     
 Charge   -0.18175     -0.15207     -0.14468     -0.11832     -0.32756
   
 Atom       C66          C67          C68          C69          C70     
 Charge    0.51831     -0.28200     -0.11403     -0.15568     -0.12537
   
 Atom       N71          S72          O73          O74          C75     
 Charge   -0.35809      0.64101     -0.43186     -0.45572      0.39307
   
 Atom       C76          C77          C78          C79          N80     
 Charge   -0.30951      0.01998     -0.20333      0.16217     -0.37642
   
 Atom       N81          C82          C83          C84          C85     
 Charge   -0.04293     -0.09772     -0.22636     -0.23010      0.14299
   
 Atom       H86          H87          H88          H89          H90     
 Charge    0.11303      0.15351      0.15067      0.16811      0.13986
   
 Atom       H91          H92          H93          H94          H95     
 Charge    0.14013      0.19879      0.16760      0.15461      0.13136
   
 Atom       H96          H97          H98          H99          H100    
 Charge    0.30690      0.12180      0.09512      0.08786      0.11292
   
 Atom       H101         H102         H103         H104         H105    
 Charge    0.13435      0.11717      0.09109      0.11820      0.15801
   
 Atom       H106         H107         H108         H109         H110    
 Charge    0.07192      0.11410      0.04916      0.14319      0.14016
   
 Atom       H111         H112         H113         H114         H115    
 Charge    0.14249      0.14642      0.13335      0.12535      0.12542
   
 Atom       H116         H117         H118         H119         H120    
 Charge    0.14122      0.12544      0.14681      0.13872      0.13626
   
 Atom       H121         H122         H123         H124         H125    
 Charge    0.12894      0.14433      0.11642      0.14406      0.14412
   
 Atom       H126         H127         H128         H129         H130    
 Charge    0.10811      0.15641      0.20008      0.12864      0.14056
   
 Atom       H131         H132         H133         H134         H135    
 Charge    0.15425      0.13943      0.18040      0.13838      0.13610
   
 Atom       H136         H137         H138         H139         H140    
 Charge    0.08623      0.26013      0.18713      0.19043      0.19946
   
 Atom       H141    
 Charge    0.06704
  
  sum of atomic charges:     0.000000
   
 RMS Error   9.81E-04 hartrees
 
  Peak memory usage:    582 Mb
  
  end of program ch
   
 Time(ch)  user:       17.0  user+sys:       18.0  wallclock:       19.7
  
  start of program post
  
  Writing input files for PBF
  Peak memory usage:    534 Mb
  
  end of program post
   
 Time(post)  user:        0.0  user+sys:        0.0  wallclock:        0.4

  start of program pbf

Pbf Version 4.00

Molecular surface area:      789.51305   [A2]
Reaction field energy:       -17.11458   [kT]
  Peak memory usage: 556 Mb

  end of program pbf

 Time(pbf)  user:       13.6  user+sys:       13.6  wallclock:       14.3
  
  start of program solv
  
   number of surface charges from PBF   12864
   sum of surface charges     -0.00028
   
  nuclear repulsion energy.......   17461.305836203 hartrees
  Peak memory usage:    694 Mb
  
  end of program solv
   
 Time(solv)  user:       34.0  user+sys:       34.0  wallclock:       44.9
  
  start of program scf
  
  
       i  u  d  i  g                   
       t  p  i  c  r                                 RMS    maximum
       e  d  i  u  i                       energy  density   DIIS  
       r  t  s  t  d       total energy    change  change    error 
  
etot    1  N  N  1  U   -4710.06788098446           4.9E-06  1.0E-04
etot    2  N  N  1  U   -4710.06786885796 -1.2E-05  0.0E+00  0.0E+00
  
  
 Energy components, in hartrees:
   (A)  Total zero-electron terms....   17463.66005385256
   (B)    Nuclear-nuclear............   17461.30583620319
   (C)    Nuclear-solvent............       2.35421764937
   (E)  Total one-electron terms.....  -41264.14862371761
   (F)    Electron-nuclear...........  -45937.16031243057
   (G)    Electron-solvent...........      -2.39020951377
   (H)    Kinetic....................    4675.40189822673
   (I)  Total two-electron terms.....   19090.42070100709
   (J)    Coulomb....................   19663.78268849421
   (K)    Exchange+Correlation.......    -573.36198748712
   (L)  Electronic energy............  -22173.72792271052  (E+I)
   (N)  Total quantum mech. energy...   -4710.06786885796  (A+L)
   (O)  Gas phase energy.............   -4710.03301861719
   (P)  Solution phase energy........   -4710.04987292576  (Q+R+S)
   (Q)    Total solute energy........   -4710.03187699356  (N-C-G)
   (R)    Total solvent energy.......      -0.01799593220  (C/2+G/2)
   (S)    Solute cavity energy.......       0.00000000000
   (U)  Reorganization energy........       0.00114162364  (Q-O)
   (V)  Solvation energy.............      -0.01685430856  (P-O)
  
 SCFE:  Solution phase energy: DFT(m06-2x)      -4710.04987292576 hartrees
        SCF iterations:   2
  
 
 HOMO energy:    -0.25290
 LUMO energy:    -0.05932
 
  Orbital energies (hartrees): 
   -90.16924   -78.18599   -67.00751   -67.00549   -19.67437   -19.67371
   -19.65229   -19.65190   -19.59162   -19.59059   -14.81567   -14.79792
   -14.78115   -10.64895   -10.62621   -10.62014   -10.61639   -10.61522
   -10.59763   -10.58968   -10.58353   -10.58222   -10.57777   -10.57359
   -10.56932   -10.56908   -10.56717   -10.56669   -10.56469   -10.56420
   -10.56324   -10.56323   -10.56291   -10.56243   -10.56115   -10.56113
   -10.55975   -10.55890   -10.55801   -10.55612   -10.55442   -10.55373
   -10.55367   -10.55339   -10.55320   -10.55246   -10.55161   -10.55155
   -10.55066   -10.55057   -10.54953   -10.54944   -10.54923   -10.54896
   -10.54860   -10.54820   -10.54796   -10.54736   -10.54725   -10.54638
   -10.54633   -10.54621   -10.54554   -10.54515   -10.54397   -10.54292
   -10.54237   -10.54217   -10.54216   -10.54153   -10.54135   -10.54077
   -10.54035   -10.54033   -10.54024   -10.53962   -10.53771   -10.53670
   -10.53543   -10.53516   -10.53111   -10.52979   -10.52860   -10.52698
   -10.52366    -8.47978    -6.96533    -6.40184    -6.40100    -6.40031
    -5.53909    -5.53666    -5.08399    -5.08278    -5.08116    -3.84885
    -3.84848    -3.84839    -3.84637    -3.84616    -3.84597    -1.24170
    -1.21493    -1.17065    -1.12929    -1.10663    -1.08960    -1.07612
    -1.05644    -1.03991    -0.98055    -0.97017    -0.96691    -0.94603
    -0.94340    -0.93988    -0.93762    -0.93660    -0.93393    -0.92003
    -0.91793    -0.91008    -0.89518    -0.88924    -0.88841    -0.87296
    -0.85329    -0.85114    -0.84378    -0.84203    -0.83701    -0.83677
    -0.83473    -0.83137    -0.83005    -0.82916    -0.82836    -0.82750
    -0.82673    -0.82541    -0.82460    -0.82301    -0.82167    -0.82039
    -0.80587    -0.79949    -0.74590    -0.73490    -0.73111    -0.70868
    -0.70522    -0.70090    -0.69912    -0.69601    -0.68806    -0.68098
    -0.67826    -0.67651    -0.67611    -0.67148    -0.67083    -0.66990
    -0.66741    -0.66655    -0.66376    -0.66283    -0.65984    -0.65956
    -0.65849    -0.65537    -0.65367    -0.64718    -0.64090    -0.63823
    -0.61936    -0.60825    -0.60626    -0.60163    -0.59731    -0.59606
    -0.58141    -0.58005    -0.57717    -0.57604    -0.57520    -0.57490
    -0.57134    -0.56932    -0.56045    -0.55940    -0.55219    -0.54335
    -0.54300    -0.54155    -0.53648    -0.53643    -0.52776    -0.52624
    -0.52448    -0.52219    -0.51809    -0.51632    -0.51551    -0.51392
    -0.51121    -0.50890    -0.50657    -0.50566    -0.50380    -0.50209
    -0.49890    -0.49833    -0.49767    -0.49580    -0.49538    -0.49479
    -0.49418    -0.49340    -0.49204    -0.49058    -0.48950    -0.48646
    -0.48489    -0.48355    -0.48267    -0.48159    -0.48082    -0.47820
    -0.47628    -0.47414    -0.47119    -0.47015    -0.46610    -0.46441
    -0.46210    -0.45526    -0.45470    -0.45132    -0.44985    -0.44857
    -0.44717    -0.44569    -0.44351    -0.43939    -0.43482    -0.43158
    -0.42928    -0.42690    -0.42610    -0.42304    -0.42043    -0.42042
    -0.41774    -0.41731    -0.41470    -0.41363    -0.40705    -0.40443
    -0.39967    -0.39811    -0.39709    -0.39233    -0.39222    -0.39102
    -0.38923    -0.38788    -0.38655    -0.38567    -0.38506    -0.38272
    -0.38109    -0.38081    -0.37717    -0.37535    -0.36719    -0.35646
    -0.35386    -0.35130    -0.34612    -0.34354    -0.34178    -0.33944
    -0.33763    -0.33733    -0.33680    -0.33211    -0.32920    -0.32889
    -0.32479    -0.31387    -0.31369    -0.30778    -0.30302    -0.30292
    -0.30072    -0.29616    -0.29557    -0.29455    -0.29344    -0.29100
    -0.28995    -0.28836    -0.28521    -0.28324    -0.28021    -0.27852
    -0.27129    -0.25290    -0.05932    -0.02054    -0.01290     0.00044
     0.00474     0.01097     0.01565     0.01745     0.02246     0.02424
 
  Peak memory usage:    833 Mb
  
  end of program scf
   
 Time(scf)  user:     2326.0  user+sys:     2338.0  wallclock:     2475.3
  
  start of program sole
  
    SCRF                   solvation energy
  iteration          Hartrees            kcal/mol
     0               0.0000000            0.0000
     1              -0.0157319           -9.8719
     2              -0.0167301          -10.4983
     3              -0.0168543          -10.5762
  
  stopping: solvation energy converged
  
  iterations:   3    sfinal:    -10.5762 kcal/mol
  
  Peak memory usage:    634 Mb
  
  end of program sole
   
 Time(sole)  user:        0.0  user+sys:        0.0  wallclock:        0.3
  
  start of program post
  
  Writing input files for PBF
  Peak memory usage:    534 Mb
  
  end of program post
   
 Time(post)  user:        0.0  user+sys:        0.0  wallclock:        0.4

 Total cpu seconds     user:   37291.000   user+sys:   37489.000
  
 Total elapsed time:    61539 seconds

Job MO6-2X-SPE-Toru-SiPh3-Type-I-Z-1-chkp-unrestrained.mol completed on tethys at Fri Nov 25 08:11:16 2016
