Job B3LYP-SPE-Toru-SiPh3-Type-I-Z-1-chkp-unrestrained started on tethys at Wed Nov 23 14:04:10 2016
jobid: tethys-0-5835a1d9

  +--------------------------------------------------------------------+
  |  Jaguar version 8.4, release  16                                   |
  |                                                                    |
  |  Copyright Schrodinger, Inc.                                       |
  |  All Rights Reserved.                                              |
  |                                                                    |
  |  The following have contributed to Jaguar (listed alphabetically): |
  |  Mike Beachy, Art Bochevarov, Dale Braden, Yixiang Cao,            |
  |  Chris Cortis, Rich Friesner, Bill Goddard, Hod Greeley,           |
  |  Tom Hughes, Jean-Marc Langlois, Daniel Mainz, Rob Murphy,         |
  |  Dean Philipp, Tom Pollard, Murco Ringnalda.                       |
  |                                                                    |
  |  Use of this program should be acknowledged in publications as:    |
  |                                                                    |
  |  Jaguar, version 8.4, Schrodinger, Inc., New York, NY, 2013.       |
  |                                                                    |
  |  A. D. Bochevarov, E. Harder, T. F. Hughes, J. R. Greenwood,       |
  |  D. A. Braden, D. M. Philipp, D. Rinaldo, M. D. Halls,             |
  |  J. Zhang, R. A. Friesner, "Jaguar: A High-Performance Quantum     |
  |  Chemistry Software Program with Strengths in Life and Materials   |
  |  Sciences", Int. J. Quantum Chem., 2013, 113(18), 2110-2142.       |
  +--------------------------------------------------------------------+
  
  start of program pre
  
  Job name: B3LYP-SPE-Toru-SiPh3-Type-I-Z-1-chkp-unrestrained
  Executables used: /usr/local/shared/schrodinger/current/jaguar-v84016/bin/Linux-x86_64
  Temporary files : /home/ab2144/.schrodinger/tmp/B3LYP-SPE-Toru-SiPh3-Type-I-Z-1-chkp-unrestrained
  Maestro file (input):  B3LYP-SPE-Toru-SiPh3-Type-I-Z-1-chkp-unrestrained.mae
  Maestro file (output): B3LYP-SPE-Toru-SiPh3-Type-I-Z-1-chkp-unrestrained.01.mae
  
  
  basis set:             6-31g**         
  net molecular charge:    0
  multiplicity:            1
  
  keygrid settings 
    wispc.....   7.500E-01
    ldens.....   0
    denspc....   7.500E-01
  
   grid     daf set  nls  grid set  Q type
  ------    -------  ---  --------  ------
  coarse       1      1       1        1
  medium       2      2       2        1
  fine         3      2       3        0
  ultrafine    4      2       4        1
  charge       0      1      -1        1
  gradient     5      2       4        1
  density      0      1       0        0
  DFT-fine     0      1     -13        0
  DFT-med.     0      1     -13        0
  DFT-grad     0      1     -13        0
  DFT-der2     0      1       0        0
  DFT-cphf     0      1       0        0
  LMP2-enrg    4      2       4        1
  LMP2-grad    5      2       2        1
  DFT-cphf2    0      1       0        0
  PBF-dens     0      1       0        0
  plotting     0      1       0        0
  
  idftgrdm  100
  ndftgrdm   50    0    0
  idftgrdf  111
  ndftgrdf   85    0    0
  idftgrdg  111
  ndftgrdg   80    3    0
  idftgrdu  433
  ndftgrdu  105    0    0
  idftgrdd  433
  ndftgrdd  105    0    0
  idftgrdc  433
  ndftgrdc   26    0    0
  idftgrdp  433
  ndftgrdp   18    0    0
  
  number of basis functions....         1680
  
 Input geometry:
                                   angstroms
  atom               x                 y                 z
  C1           -2.1549000000      5.2712000000      0.6259000000 
  C2           -2.7178000000      3.9131000000      0.3807000000 
  C3           -2.8918000000      6.2119000000      1.2276000000 
  C4           -3.9631000000      3.6349000000      0.8246000000 
  C5           -1.9205000000      2.8405000000     -0.2915000000 
  C6           -4.7730000000      4.6857000000      1.4839000000 
  C7           -4.5084000000      2.2728000000      0.6910000000 
  C8           -4.2659000000      5.9088000000      1.6682000000 
  C9           -2.3967000000      1.5789000000     -0.3331000000 
  C10          -0.5710000000      3.1291000000     -0.8346000000 
  C11          -3.7766000000      1.2881000000      0.1481000000 
  O12          -1.6399000000      0.5876000000     -0.9023000000 
  Si13         -4.5172000000     -0.4238000000      0.1097000000 
  C14          -0.3677000000      4.0653000000     -1.7881000000 
  C15           0.6001000000      2.4856000000     -0.1742000000 
  C16           1.0041000000      4.5768000000     -2.0262000000 
  C17          -1.4700000000      4.6582000000     -2.5852000000 
  C18           2.0219000000      4.1473000000     -1.2691000000 
  C19           1.2025000000      5.6183000000     -3.0532000000 
  C20           1.8097000000      3.0829000000     -0.2599000000 
  Si21          3.2603000000      2.5571000000      0.7911000000 
  O22           0.4233000000      1.3799000000      0.6279000000 
  C23          -1.2155000000      5.6048000000     -3.4964000000 
  C24           0.1584000000      6.0966000000     -3.7392000000 
  P25          -0.3697000000      0.0851000000     -0.0043000000 
  O26          -0.8058000000     -0.7099000000      1.1949000000 
  N27           0.5340000000     -0.8139000000     -1.0138000000 
  C28          -4.3842000000     -1.1582000000      1.8226000000 
  C29          -6.3084000000     -0.2066000000     -0.3763000000 
  C30          -3.7126000000     -1.5218000000     -1.1657000000 
  C31           3.9180000000      0.9647000000      0.0949000000 
  C32           4.5769000000      3.8691000000      0.7546000000 
  C33           2.8071000000      2.4190000000      2.5925000000 
  C34          -4.8610000000     -2.3890000000      2.0800000000 
  C35          -3.7759000000     -0.3726000000      2.9258000000 
  C36          -7.3098000000     -0.7360000000      0.3492000000 
  C37          -6.6387000000      0.6219000000     -1.5630000000 
  C38          -3.1407000000     -2.6889000000     -0.8215000000 
  C39          -3.7654000000     -1.1398000000     -2.5979000000 
  C40           3.8741000000     -0.1748000000      0.8005000000 
  C41           4.5184000000      0.9584000000     -1.2606000000 
  C42           4.2635000000      5.1316000000      1.0917000000 
  C43           5.9798000000      3.5352000000      0.4061000000 
  C44           3.7197000000      1.9733000000      3.4729000000 
  C45           1.4861000000      2.8803000000      3.0885000000 
  C46          -4.7993000000     -2.9438000000      3.4476000000 
  C47          -4.2759000000     -2.2184000000      4.4420000000 
  C48          -3.7374000000     -0.8713000000      4.1674000000 
  C49          -8.7157000000     -0.5381000000     -0.0615000000 
  C50          -9.0023000000      0.1876000000     -1.1477000000 
  C51          -7.9131000000      0.8035000000     -1.9296000000 
  C52          -2.6311000000     -3.6062000000     -1.8602000000 
  C53          -2.7279000000     -3.2764000000     -3.1520000000 
  C54          -3.3117000000     -1.9772000000     -3.5381000000 
  C55           4.4308000000     -1.4230000000      0.2395000000 
  C56           4.9991000000     -1.4161000000     -0.9713000000 
  C57           5.0436000000     -0.1676000000     -1.7594000000 
  C58           5.2985000000      6.1858000000      1.0750000000 
  C59           6.5581000000      5.8830000000      0.7404000000 
  C60           6.9161000000      4.4922000000      0.3960000000 
  C61           3.3894000000      1.8848000000      4.9103000000 
  C62           2.1834000000      2.2669000000      5.3454000000 
  C63           1.1890000000      2.7968000000      4.3912000000 
  C64           3.2580000000     -3.7464000000      4.3446000000 
  C65           2.6525000000     -4.2770000000      3.2097000000 
  C66           1.8854000000     -3.4626000000      2.3573000000 
  C67           1.7051000000     -2.1112000000      2.6883000000 
  C68           2.2926000000     -1.5918000000      3.8419000000 
  C69           3.0762000000     -2.3988000000      4.6654000000 
  C70           1.2944000000     -4.1149000000      1.1686000000 
  N71           1.2988000000     -3.5405000000     -0.0784000000 
  S72           1.2394000000     -4.5841000000     -1.4463000000 
  O73           0.8667000000     -5.9003000000     -0.9169000000 
  O74           0.4493000000     -3.9284000000     -2.4774000000 
  C75           2.9667000000     -4.6469000000     -1.9870000000 
  C76           3.3120000000     -4.1122000000     -3.2232000000 
  C77           4.6476000000     -4.2496000000     -3.6049000000 
  C78           5.5353000000     -4.8916000000     -2.7441000000 
  C79           5.0635000000     -5.3655000000     -1.5166000000 
  N80           3.7876000000     -5.2495000000     -1.1352000000 
  N81          -1.0892000000     -3.1706000000      2.1460000000 
  C82          -1.1676000000     -3.2412000000      3.4733000000 
  C83          -0.9567000000     -4.5747000000      3.8962000000 
  C84          -0.7025000000     -5.3113000000      2.7559000000 
  C85          -0.6780000000     -4.4125000000      1.6417000000 
  H86          -1.1402000000      5.5127000000      0.3415000000 
  H87          -2.4767000000      7.1958000000      1.4046000000 
  H88          -5.7783000000      4.4664000000      1.8218000000 
  H89          -5.5031000000      2.0729000000      1.0719000000 
  H90          -4.8574000000      6.6754000000      2.1517000000 
  H91          -2.4904000000      4.3198000000     -2.4563000000 
  H92           3.0147000000      4.5490000000     -1.4276000000 
  H93           2.1940000000      6.0070000000     -3.2530000000 
  H94          -2.0308000000      6.0198000000     -4.0750000000 
  H95           0.3176000000      6.8623000000     -4.4876000000 
  H96          -5.3105000000     -2.9843000000      1.2949000000 
  H97          -3.3607000000      0.6086000000      2.7419000000 
  H98          -7.1190000000     -1.3098000000      1.2418000000 
  H99          -5.8558000000      1.1156000000     -2.1213000000 
  H100         -3.0688000000     -2.9981000000      0.2084000000 
  H101         -4.1593000000     -0.1800000000     -2.8957000000 
  H102          3.4453000000     -0.1934000000      1.7875000000 
  H103          4.5441000000      1.8679000000     -1.8479000000 
  H104          3.2502000000      5.3958000000      1.3692000000 
  H105          6.2644000000      2.5181000000      0.1764000000 
  H106          4.7046000000      1.6665000000      3.1427000000 
  H107          0.7611000000      3.3116000000      2.4131000000 
  H108         -5.1859000000     -3.9355000000      3.6437000000 
  H109         -4.2321000000     -2.6222000000      5.4451000000 
  H110         -3.2963000000     -0.2953000000      4.9705000000 
  H111         -9.5132000000     -0.9825000000      0.5199000000 
  H112        -10.0317000000      0.3342000000     -1.4484000000 
  H113         -8.1489000000      1.4158000000     -2.7904000000 
  H114         -2.1960000000     -4.5547000000     -1.5740000000 
  H115         -2.3613000000     -3.9511000000     -3.9147000000 
  H116         -3.3531000000     -1.6957000000     -4.5823000000 
  H117          4.3881000000     -2.3388000000      0.8149000000 
  H118          5.4201000000     -2.3243000000     -1.3786000000 
  H119          5.4881000000     -0.1698000000     -2.7460000000 
  H120          5.0344000000      7.2031000000      1.3332000000 
  H121          7.3178000000      6.6538000000      0.7280000000 
  H122          7.9402000000      4.2475000000      0.1453000000 
  H123          4.1230000000      1.5028000000      5.6083000000 
  H124          1.9379000000      2.1989000000      6.3973000000 
  H125          0.2259000000      3.1351000000      4.7511000000 
  H126          3.8663000000     -4.3836000000      4.9792000000 
  H127          2.7887000000     -5.3270000000      2.9660000000 
  H128          1.0957000000     -1.4649000000      2.0665000000 
  H129          2.1322000000     -0.5480000000      4.0876000000 
  H130          3.5390000000     -1.9829000000      5.5554000000 
  H131          1.5210000000     -5.1731000000      1.1003000000 
  H132          2.5786000000     -3.5935000000     -3.8253000000 
  H133          4.9857000000     -3.8508000000     -4.5558000000 
  H134          6.5808000000     -5.0145000000     -3.0067000000 
  H135          5.7332000000     -5.8550000000     -0.8138000000 
  H136         -1.0846000000     -2.2605000000      1.6263000000 
  H137         -1.3312000000     -2.3536000000      4.0672000000 
  H138         -0.9794000000     -4.9197000000      4.9197000000 
  H139         -0.4995000000     -6.3716000000      2.6889000000 
  H140         -0.9565000000     -4.6925000000      0.6354000000 
  S141          1.2958000000     -0.3561000000     -2.3552000000 
  O142          2.3228000000     -1.3624000000     -2.6551000000 
  C143          0.1019000000     -0.5069000000     -3.7912000000 
  O144          1.6492000000      1.0704000000     -2.4106000000 
  F145         -0.2694000000     -1.7684000000     -3.9990000000 
  F146         -0.9840000000      0.2497000000     -3.6003000000 
  F147          0.7379000000     -0.0667000000     -4.8879000000 
  H148          1.1218000000     -2.5358000000     -0.2931000000 
   
  principal moments of inertia:
        amu*angstrom^2:    21611.82580    24168.58024    30554.44572
                g*cm^2: 3.58872766E-36 4.01328667E-36 5.07368445E-36
   
  rotational constants:
               cm^(-1):      0.00078002      0.00069750      0.00055172
                   GHz:      0.02338437      0.02091058      0.01654028
   
  Molecular weight:    1308.28 amu
   
  Stoichiometry: Si2C73PN4H56S2O7F3
  Molecular Point Group: C1      
  Point Group used: C1
  
  nuclear repulsion energy.......   20931.899239237 hartrees
 
 Non-default options chosen:
   SCF calculation type: DFT(b3lyp)                  
   DFT=Becke_3_Parameter/HF+Slater+Becke88+VWN+LYP (B3LYP)
   Solvation energy will be computed using PBF
     -solute cavity energy will not be included
     -surface area terms will not be included
   Highest accuracy cutoffs used in SCF
   Solvent: other                                                           
   Internal dielectric constant:    1.000
   Continuum dielectric constant:   2.380
   Solvent probe molecule radius:   2.760
  
 Temporary integer options set:
     73=  2
  
  atom       vdw   vdw2    cov     mass  grid  daf  charge   basis
  C1        1.949  1.900  0.770   12.000    Y    Y      Y    6-31g**
  C2        1.949  1.900  0.770   12.000    Y    Y      Y    6-31g**
  C3        1.949  1.900  0.770   12.000    Y    Y      Y    6-31g**
  C4        1.949  1.900  0.770   12.000    Y    Y      Y    6-31g**
  C5        1.949  1.900  0.770   12.000    Y    Y      Y    6-31g**
  C6        1.949  1.900  0.770   12.000    Y    Y      Y    6-31g**
  C7        1.949  1.900  0.770   12.000    Y    Y      Y    6-31g**
  C8        1.949  1.900  0.770   12.000    Y    Y      Y    6-31g**
  C9        1.949  1.900  0.770   12.000    Y    Y      Y    6-31g**
  C10       1.949  1.900  0.770   12.000    Y    Y      Y    6-31g**
  C11       1.949  1.900  0.770   12.000    Y    Y      Y    6-31g**
  O12       1.702  1.600  0.730   15.995    Y    Y      Y    6-31g**
  Si13      2.217  2.147  1.110   27.977    Y    Y      Y    6-31g**
  C14       1.949  1.900  0.770   12.000    Y    Y      Y    6-31g**
  C15       1.949  1.900  0.770   12.000    Y    Y      Y    6-31g**
  C16       1.949  1.900  0.770   12.000    Y    Y      Y    6-31g**
  C17       1.949  1.900  0.770   12.000    Y    Y      Y    6-31g**
  C18       1.949  1.900  0.770   12.000    Y    Y      Y    6-31g**
  C19       1.949  1.900  0.770   12.000    Y    Y      Y    6-31g**
  C20       1.949  1.900  0.770   12.000    Y    Y      Y    6-31g**
  Si21      2.217  2.147  1.110   27.977    Y    Y      Y    6-31g**
  O22       1.702  1.600  0.730   15.995    Y    Y      Y    6-31g**
  C23       1.949  1.900  0.770   12.000    Y    Y      Y    6-31g**
  C24       1.949  1.900  0.770   12.000    Y    Y      Y    6-31g**
  P25       2.147  2.074  1.060   30.974    Y    Y      Y    6-31g**
  O26       1.702  1.600  0.730   15.995    Y    Y      Y    6-31g**
  N27       1.831  1.600  0.750   14.003    Y    Y      Y    6-31g**
  C28       1.949  1.900  0.770   12.000    Y    Y      Y    6-31g**
  C29       1.949  1.900  0.770   12.000    Y    Y      Y    6-31g**
  C30       1.949  1.900  0.770   12.000    Y    Y      Y    6-31g**
  C31       1.949  1.900  0.770   12.000    Y    Y      Y    6-31g**
  C32       1.949  1.900  0.770   12.000    Y    Y      Y    6-31g**
  C33       1.949  1.900  0.770   12.000    Y    Y      Y    6-31g**
  C34       1.949  1.900  0.770   12.000    Y    Y      Y    6-31g**
  C35       1.949  1.900  0.770   12.000    Y    Y      Y    6-31g**
  C36       1.949  1.900  0.770   12.000    Y    Y      Y    6-31g**
  C37       1.949  1.900  0.770   12.000    Y    Y      Y    6-31g**
  C38       1.949  1.900  0.770   12.000    Y    Y      Y    6-31g**
  C39       1.949  1.900  0.770   12.000    Y    Y      Y    6-31g**
  C40       1.949  1.900  0.770   12.000    Y    Y      Y    6-31g**
  C41       1.949  1.900  0.770   12.000    Y    Y      Y    6-31g**
  C42       1.949  1.900  0.770   12.000    Y    Y      Y    6-31g**
  C43       1.949  1.900  0.770   12.000    Y    Y      Y    6-31g**
  C44       1.949  1.900  0.770   12.000    Y    Y      Y    6-31g**
  C45       1.949  1.900  0.770   12.000    Y    Y      Y    6-31g**
  C46       1.949  1.900  0.770   12.000    Y    Y      Y    6-31g**
  C47       1.949  1.900  0.770   12.000    Y    Y      Y    6-31g**
  C48       1.949  1.900  0.770   12.000    Y    Y      Y    6-31g**
  C49       1.949  1.900  0.770   12.000    Y    Y      Y    6-31g**
  C50       1.949  1.900  0.770   12.000    Y    Y      Y    6-31g**
  C51       1.949  1.900  0.770   12.000    Y    Y      Y    6-31g**
  C52       1.949  1.900  0.770   12.000    Y    Y      Y    6-31g**
  C53       1.949  1.900  0.770   12.000    Y    Y      Y    6-31g**
  C54       1.949  1.900  0.770   12.000    Y    Y      Y    6-31g**
  C55       1.949  1.900  0.770   12.000    Y    Y      Y    6-31g**
  C56       1.949  1.900  0.770   12.000    Y    Y      Y    6-31g**
  C57       1.949  1.900  0.770   12.000    Y    Y      Y    6-31g**
  C58       1.949  1.900  0.770   12.000    Y    Y      Y    6-31g**
  C59       1.949  1.900  0.770   12.000    Y    Y      Y    6-31g**
  C60       1.949  1.900  0.770   12.000    Y    Y      Y    6-31g**
  C61       1.949  1.900  0.770   12.000    Y    Y      Y    6-31g**
  C62       1.949  1.900  0.770   12.000    Y    Y      Y    6-31g**
  C63       1.949  1.900  0.770   12.000    Y    Y      Y    6-31g**
  C64       1.949  1.900  0.770   12.000    Y    Y      Y    6-31g**
  C65       1.949  1.900  0.770   12.000    Y    Y      Y    6-31g**
  C66       1.949  1.900  0.770   12.000    Y    Y      Y    6-31g**
  C67       1.949  1.900  0.770   12.000    Y    Y      Y    6-31g**
  C68       1.949  1.900  0.770   12.000    Y    Y      Y    6-31g**
  C69       1.949  1.900  0.770   12.000    Y    Y      Y    6-31g**
  C70       1.949  1.900  0.770   12.000    Y    Y      Y    6-31g**
  N71       1.831  1.600  0.750   14.003    Y    Y      Y    6-31g**
  S72       2.070  1.900  1.020   31.972    Y    Y      Y    6-31g**
  O73       1.702  1.600  0.730   15.995    Y    Y      Y    6-31g**
  O74       1.702  1.600  0.730   15.995    Y    Y      Y    6-31g**
  C75       1.949  1.900  0.770   12.000    Y    Y      Y    6-31g**
  C76       1.949  1.900  0.770   12.000    Y    Y      Y    6-31g**
  C77       1.949  1.900  0.770   12.000    Y    Y      Y    6-31g**
  C78       1.949  1.900  0.770   12.000    Y    Y      Y    6-31g**
  C79       1.949  1.900  0.770   12.000    Y    Y      Y    6-31g**
  N80       1.831  1.600  0.750   14.003    Y    Y      Y    6-31g**
  N81       1.831  1.600  0.750   14.003    Y    Y      Y    6-31g**
  C82       1.949  1.900  0.770   12.000    Y    Y      Y    6-31g**
  C83       1.949  1.900  0.770   12.000    Y    Y      Y    6-31g**
  C84       1.949  1.900  0.770   12.000    Y    Y      Y    6-31g**
  C85       1.949  1.900  0.770   12.000    Y    Y      Y    6-31g**
  H86       1.597  1.150  0.320    1.008    Y    Y      Y    6-31g**
  H87       1.597  1.150  0.320    1.008    Y    Y      Y    6-31g**
  H88       1.597  1.150  0.320    1.008    Y    Y      Y    6-31g**
  H89       1.597  1.150  0.320    1.008    Y    Y      Y    6-31g**
  H90       1.597  1.150  0.320    1.008    Y    Y      Y    6-31g**
  H91       1.597  1.150  0.320    1.008    Y    Y      Y    6-31g**
  H92       1.597  1.150  0.320    1.008    Y    Y      Y    6-31g**
  H93       1.597  1.150  0.320    1.008    Y    Y      Y    6-31g**
  H94       1.597  1.150  0.320    1.008    Y    Y      Y    6-31g**
  H95       1.597  1.150  0.320    1.008    Y    Y      Y    6-31g**
  H96       1.597  1.150  0.320    1.008    Y    Y      Y    6-31g**
  H97       1.597  1.150  0.320    1.008    Y    Y      Y    6-31g**
  H98       1.597  1.150  0.320    1.008    Y    Y      Y    6-31g**
  H99       1.597  1.150  0.320    1.008    Y    Y      Y    6-31g**
  H100      1.597  1.150  0.320    1.008    Y    Y      Y    6-31g**
  H101      1.597  1.150  0.320    1.008    Y    Y      Y    6-31g**
  H102      1.597  1.150  0.320    1.008    Y    Y      Y    6-31g**
  H103      1.597  1.150  0.320    1.008    Y    Y      Y    6-31g**
  H104      1.597  1.150  0.320    1.008    Y    Y      Y    6-31g**
  H105      1.597  1.150  0.320    1.008    Y    Y      Y    6-31g**
  H106      1.597  1.150  0.320    1.008    Y    Y      Y    6-31g**
  H107      1.597  1.150  0.320    1.008    Y    Y      Y    6-31g**
  H108      1.597  1.150  0.320    1.008    Y    Y      Y    6-31g**
  H109      1.597  1.150  0.320    1.008    Y    Y      Y    6-31g**
  H110      1.597  1.150  0.320    1.008    Y    Y      Y    6-31g**
  H111      1.597  1.150  0.320    1.008    Y    Y      Y    6-31g**
  H112      1.597  1.150  0.320    1.008    Y    Y      Y    6-31g**
  H113      1.597  1.150  0.320    1.008    Y    Y      Y    6-31g**
  H114      1.597  1.150  0.320    1.008    Y    Y      Y    6-31g**
  H115      1.597  1.150  0.320    1.008    Y    Y      Y    6-31g**
  H116      1.597  1.150  0.320    1.008    Y    Y      Y    6-31g**
  H117      1.597  1.150  0.320    1.008    Y    Y      Y    6-31g**
  H118      1.597  1.150  0.320    1.008    Y    Y      Y    6-31g**
  H119      1.597  1.150  0.320    1.008    Y    Y      Y    6-31g**
  H120      1.597  1.150  0.320    1.008    Y    Y      Y    6-31g**
  H121      1.597  1.150  0.320    1.008    Y    Y      Y    6-31g**
  H122      1.597  1.150  0.320    1.008    Y    Y      Y    6-31g**
  H123      1.597  1.150  0.320    1.008    Y    Y      Y    6-31g**
  H124      1.597  1.150  0.320    1.008    Y    Y      Y    6-31g**
  H125      1.597  1.150  0.320    1.008    Y    Y      Y    6-31g**
  H126      1.597  1.150  0.320    1.008    Y    Y      Y    6-31g**
  H127      1.597  1.150  0.320    1.008    Y    Y      Y    6-31g**
  H128      1.597  1.150  0.320    1.008    Y    Y      Y    6-31g**
  H129      1.597  1.150  0.320    1.008    Y    Y      Y    6-31g**
  H130      1.597  1.150  0.320    1.008    Y    Y      Y    6-31g**
  H131      1.597  1.150  0.320    1.008    Y    Y      Y    6-31g**
  H132      1.597  1.150  0.320    1.008    Y    Y      Y    6-31g**
  H133      1.597  1.150  0.320    1.008    Y    Y      Y    6-31g**
  H134      1.597  1.150  0.320    1.008    Y    Y      Y    6-31g**
  H135      1.597  1.150  0.320    1.008    Y    Y      Y    6-31g**
  H136      1.597  1.150  0.320    1.008    Y    Y      Y    6-31g**
  H137      1.597  1.150  0.320    1.008    Y    Y      Y    6-31g**
  H138      1.597  1.150  0.320    1.008    Y    Y      Y    6-31g**
  H139      1.597  1.150  0.320    1.008    Y    Y      Y    6-31g**
  H140      1.597  1.150  0.320    1.008    Y    Y      Y    6-31g**
  S141      2.070  1.900  1.020   31.972    Y    Y      Y    6-31g**
  O142      1.702  1.600  0.730   15.995    Y    Y      Y    6-31g**
  C143      1.949  1.900  0.770   12.000    Y    Y      Y    6-31g**
  O144      1.702  1.600  0.730   15.995    Y    Y      Y    6-31g**
  F145      1.736  1.682  0.720   18.998    Y    Y      Y    6-31g**
  F146      1.736  1.682  0.720   18.998    Y    Y      Y    6-31g**
  F147      1.736  1.682  0.720   18.998    Y    Y      Y    6-31g**
  H148      1.597  1.150  0.320    1.008    Y    Y      Y    6-31g**
  
  Peak memory usage:    528 Mb
  
  end of program pre
   
 Time(pre)  user:        0.0  user+sys:        0.0  wallclock:        0.3
  
  start of program onee
  
  smallest eigenvalue of S:    2.333E-04
  number of canonical orbitals.....         1674
  Peak memory usage:    707 Mb
  
  end of program onee
   
 Time(onee)  user:       25.0  user+sys:       26.0  wallclock:       27.2
  
  start of program hfig
  
  initial wavefunction generated automatically from atomic wavefunctions
 
  Irreducible     Total no   No of occupied orbitals 
  representation  orbitals   Shell_1  Shell_2    ...
  No Symm         1674        340
  ------------------------
  Orbital occupation/shell    1.000
 
  Peak memory usage:    646 Mb
  
  end of program hfig
   
 Time(hfig)  user:       44.0  user+sys:       44.0  wallclock:       52.4
  
  start of program probe
  
  Peak memory usage:    640 Mb
  
  end of program probe
   
 Time(probe)  user:       43.0  user+sys:       43.0  wallclock:       54.7
  
  start of program grid
  
  
   grid     grid set  grid #  grid sym
  ------    --------  ------  --------
  coarse        0        0        1
  medium        2        1        1
  fine          0        0        1
  ultrafine     4        2        1
  charge       -1        3        1
  gradient      4        2        1
  density       0        0        1
  DFT-fine    -13        4        1
  DFT-med.    -13        4        1
  DFT-grad    -13        4        1
  DFT-der2      0        0        1
  DFT-cphf      0        0        1
  LMP2-enrg     4        2        1
  LMP2-grad     2        1        1
  DFT-cphf2     0        0        1
  PBF-dens      0        0        1
  plotting      0        0        1
  
   
  number of gridpoints: 
     atom        C1       C2       C3       C4       C5       C6       C7
  grid # 1       96      101       94      101      100       96       92
  grid # 2      338      359      336      366      356      335      333
  grid # 3       27       24       40       41       13       46       16
  grid # 4    14816    14816    14816    14816    14816    14816    14816
   
  number of gridpoints: 
     atom        C8       C9      C10      C11      O12     Si13      C14
  grid # 1       94       97      100      100      111      472      101
  grid # 2      335      361      358      358      430      472      358
  grid # 3       47       20       11       10       30        7       22
  grid # 4    14816    14816    14816    14816    23902    22912    14816
   
  number of gridpoints: 
     atom       C15      C16      C17      C18      C19      C20     Si21
  grid # 1       97      101       96       94       97      100      471
  grid # 2      352      365      336      331      338      360      471
  grid # 3        6       32       28       17       41        9        8
  grid # 4    14816    14816    14816    14816    14816    14816    22912
   
  number of gridpoints: 
     atom       O22      C23      C24      P25      O26      N27      C28
  grid # 1      113       94       94      442      117      111      101
  grid # 2      439      339      338      442      437      402      358
  grid # 3       42       39       45        6       51       26       12
  grid # 4    23902    14816    14816    23204    23902    15000    14816
   
  number of gridpoints: 
     atom       C29      C30      C31      C32      C33      C34      C35
  grid # 1      101      100      101      100      101       92       97
  grid # 2      360      360      356      359      360      334      336
  grid # 3       20       20        8       11       12       11       24
  grid # 4    14816    14816    14816    14816    14816    14816    14816
   
  number of gridpoints: 
     atom       C36      C37      C38      C39      C40      C41      C42
  grid # 1       93       94       93       97       92       93       92
  grid # 2      338      336      335      336      334      328      335
  grid # 3       32       29       22       27       17        7       22
  grid # 4    14816    14816    14816    14816    14816    14816    14816
   
  number of gridpoints: 
     atom       C43      C44      C45      C46      C47      C48      C49
  grid # 1       96       92       96       92       94       94       94
  grid # 2      339      334      336      333      331      331      336
  grid # 3       29       19       25       24       29       29       45
  grid # 4    14816    14816    14816    14816    14816    14816    14816
   
  number of gridpoints: 
     atom       C50      C51      C52      C53      C54      C55      C56
  grid # 1       94       95       94       94       94       93       93
  grid # 2      336      336      334      332      333      334      331
  grid # 3       47       43       33       30       30       27       25
  grid # 4    14816    14816    14816    14816    14816    14816    14816
   
  number of gridpoints: 
     atom       C57      C58      C59      C60      C61      C62      C63
  grid # 1       93       93       94       94       93       93       94
  grid # 2      331      335      336      336      330      334      336
  grid # 3       18       39       45       46       28       28       35
  grid # 4    14816    14816    14816    14816    14816    14816    14816
   
  number of gridpoints: 
     atom       C64      C65      C66      C67      C68      C69      C70
  grid # 1       95       95       98       95       95       96       91
  grid # 2      331      333      355      326      329      331      322
  grid # 3       32       19        8        9       17       33        6
  grid # 4    14816    14816    14816    14816    14816    14816    14816
   
  number of gridpoints: 
     atom       N71      S72      O73      O74      C75      C76      C77
  grid # 1       98      441      121      119       98       96       96
  grid # 2      354      441      485      470      359      328      329
  grid # 3       11       12      227       78       30       33       29
  grid # 4    15000    32664    23902    23902    14816    14816    14816
   
  number of gridpoints: 
     atom       C78      C79      N80      N81      C82      C83      C84
  grid # 1       96       96      112       96       94       93       94
  grid # 2      328      337      417      347      329      330      332
  grid # 3       30       29       88       13       13       21       21
  grid # 4    14816    14816    15000    15000    14816    14816    14816
   
  number of gridpoints: 
     atom       C85      H86      H87      H88      H89      H90      H91
  grid # 1       92      111      118      118      112      118      113
  grid # 2      324      431      451      446      428      453      435
  grid # 3        7      210      415      360      201      425      254
  grid # 4    14816    16416    16416    16416    16416    16416    16416
   
  number of gridpoints: 
     atom       H92      H93      H94      H95      H96      H97      H98
  grid # 1      110      117      118      118      112      111      110
  grid # 2      425      443      449      451      424      427      431
  grid # 3      170      362      411      418      217      196      224
  grid # 4    16416    16416    16416    16416    16416    16416    16416
   
  number of gridpoints: 
     atom       H99     H100     H101     H102     H103     H104     H105
  grid # 1      108      106      110      106      111      112      111
  grid # 2      425      413      419      413      432      438      433
  grid # 3      197       93      186       84      217      259      225
  grid # 4    16416    16416    16416    16416    16416    16416    16416
   
  number of gridpoints: 
     atom      H106     H107     H108     H109     H110     H111     H112
  grid # 1      113      111      117      117      117      118      118
  grid # 2      436      421      451      451      448      452      453
  grid # 3      250      174      388      376      360      417      425
  grid # 4    16416    16416    16416    16416    16416    16416    16416
   
  number of gridpoints: 
     atom      H113     H114     H115     H116     H117     H118     H119
  grid # 1      118      110      115      117      114      112      117
  grid # 2      453      430      445      446      437      431      450
  grid # 3      421      218      344      364      237      216      363
  grid # 4    16416    16416    16416    16416    16416    16416    16416
   
  number of gridpoints: 
     atom      H120     H121     H122     H123     H124     H125     H126
  grid # 1      118      118      118      117      117      118      118
  grid # 2      452      453      453      447      452      451      449
  grid # 3      414      424      423      355      405      371      411
  grid # 4    16416    16416    16416    16416    16416    16416    16416
   
  number of gridpoints: 
     atom      H127     H128     H129     H130     H131     H132     H133
  grid # 1      111      104      110      117      104      111      117
  grid # 2      438      408      425      446      409      432      453
  grid # 3      286       68      159      362      107      220      402
  grid # 4    16416    16416    16416    16416    16416    16416    16416
   
  number of gridpoints: 
     atom      H134     H135     H136     H137     H138     H139     H140
  grid # 1      117      117      101      112      116      116      107
  grid # 2      451      453      396      433      458      455      418
  grid # 3      407      423       51      207      416      390      112
  grid # 4    16416    16416    16416    16416    16416    16416    16416
   
  number of gridpoints: 
     atom      S141     O142     C143     O144     F145     F146     F147
  grid # 1      434      117       90      118      514      521      537
  grid # 2      434      471      319      478      514      521      537
  grid # 3       10       67        7       94       94      121      300
  grid # 4    32664    23902    14816    23902    23920    23920    23920
   
  number of gridpoints: 
     atom      H148    total
  grid # 1      103    18387
  grid # 2      404    57842
  grid # 3       68    19269
  grid # 4    16416  2434294
   
  Peak memory usage:    671 Mb
  
  end of program grid
   
 Time(grid)  user:      388.0  user+sys:      390.0  wallclock:      439.0
  
  start of program rwr
  
  dpptrf failed in rinv with info = 274
  switching to SVD for RwR matrix   2 for grid  2
  Peak memory usage:    661 Mb
  
  end of program rwr
   
 Time(rwr)  user:       70.0  user+sys:       76.0  wallclock:      165.1
  
  start of program scf
  
 number of electrons..........        680
 number of alpha electrons....        340
 number of beta electrons.....        340
 number of orbitals, total....       1674
 number of doubly-occ'd orbs..        340
 number of open shell orbs....          0
 number of occupied orbitals..        340
 number of virtual orbitals...       1334
 number of hamiltonians.......          1
 number of shells.............          1
 SCF type: DFT=Becke_3_Parameter/HF+Slater+Becke88+VWN+LYP (B3LYP)
  
       i  u  d  i  g                   
       t  p  i  c  r                                 RMS    maximum
       e  d  i  u  i                       energy  density   DIIS  
       r  t  s  t  d       total energy    change  change    error 
  
etot    1  N  N  1  U   -5563.79643719778           5.6E-03  1.1E-01
etot    2  N  Y  1  U   -5461.98510277756 -1.0E+02  1.6E-02  2.6E-01
etot    3  N  Y  1  U   -5284.80866852654 -1.8E+02  1.5E-02  3.2E-01
etot    4  N  Y  1  U   -5569.52654618695  2.8E+02  1.0E-02  1.1E-01
etot    5  N  Y  1  U   -5487.66877393757 -8.2E+01  9.9E-03  2.3E-01
etot    6  N  Y  1  U   -5576.36354076417  8.9E+01  1.0E-03  5.6E-02
etot    7  N  Y  1  U   -5576.60489461417  2.4E-01  6.1E-04  3.5E-02
etot    8  N  Y  1  U   -5577.12688770441  5.2E-01  2.2E-04  9.0E-03
etot    9  N  Y  1  U   -5577.19360480279  6.7E-02  8.6E-05  4.6E-03
etot   10  N  Y  1  U   -5577.20309135787  9.5E-03  4.2E-05  2.6E-03
etot   11  N  Y  1  U   -5577.20560025803  2.5E-03  2.3E-05  1.2E-03
etot   12  N  Y  1  U   -5577.20625276057  6.5E-04  1.3E-05  5.8E-04
etot   13  N  Y  1  U   -5577.20643813786  1.9E-04  5.1E-06  2.5E-04
etot   14  N  N  1  U   -5577.20646784339  3.0E-05  0.0E+00  0.0E+00
  
  
 Energy components, in hartrees:
   (A)  Nuclear repulsion............   20931.89923923707
   (E)  Total one-electron terms.....  -49398.09688755890
   (F)    Electron-nuclear...........  -54933.30312663950
   (H)    Kinetic....................    5535.20623908060
   (I)  Total two-electron terms.....   22888.99118047844
   (J)    Coulomb....................   23542.22865274126
   (K)    Exchange+Correlation.......    -653.23747226282
   (L)  Electronic energy............  -26509.10570708046  (E+I)
   (M)  -V/T.........................       2.00758783448  (-(A+F+I)/H)
   (N)  Total energy.................   -5577.20646784339  (A+L)
  
 SCFE: SCF energy: DFT(b3lyp)     -5577.20646784339 hartrees   iterations:  14
  
 
 HOMO energy:    -0.19645
 LUMO energy:    -0.09499
 
  Orbital energies (hartrees): 
   -89.12093   -89.08604   -77.23802   -66.11313   -66.10467   -24.71429
   -24.71363   -24.71223   -19.19450   -19.19019   -19.15726   -19.15312
   -19.11261   -19.11178   -19.11111   -14.39630   -14.38754   -14.36153
   -14.30758   -10.41786   -10.29019   -10.26473   -10.25824   -10.25201
   -10.25137   -10.24712   -10.24582   -10.22856   -10.22296   -10.22220
   -10.22134   -10.22015   -10.21342   -10.21144   -10.20678   -10.20603
   -10.20507   -10.20145   -10.20017   -10.19840   -10.19752   -10.19627
   -10.19532   -10.19463   -10.19449   -10.19370   -10.19350   -10.19215
   -10.18993   -10.18951   -10.18887   -10.18822   -10.18775   -10.18768
   -10.18695   -10.18584   -10.18564   -10.18536   -10.18454   -10.18437
   -10.18372   -10.18323   -10.18315   -10.18295   -10.18215   -10.18214
   -10.18181   -10.18126   -10.18065   -10.18057   -10.18040   -10.18038
   -10.17971   -10.17781   -10.17749   -10.17664   -10.17364   -10.17254
   -10.17075   -10.17048   -10.17039   -10.17002   -10.16940   -10.16883
   -10.16789   -10.16756   -10.16716   -10.16714   -10.16694   -10.16305
   -10.16187   -10.15458    -8.14701    -8.11058    -6.68253    -6.11227
    -6.11104    -6.10961    -6.07521    -6.07463    -6.07429    -5.25958
    -5.25158    -4.84722    -4.84636    -4.84395    -3.61867    -3.61816
    -3.61790    -3.61051    -3.61036    -3.60977    -1.29343    -1.20649
    -1.20376    -1.12357    -1.09944    -1.07842    -1.05950    -1.01481
    -1.00703    -0.97322    -0.97135    -0.96863    -0.95181    -0.87377
    -0.87035    -0.86339    -0.85513    -0.84704    -0.83818    -0.83717
    -0.83319    -0.82589    -0.82516    -0.82184    -0.81606    -0.80744
    -0.80264    -0.79902    -0.78407    -0.78388    -0.75951    -0.75373
    -0.75158    -0.74921    -0.74587    -0.74366    -0.73817    -0.73747
    -0.73516    -0.73348    -0.73308    -0.73016    -0.72846    -0.72738
    -0.72521    -0.72128    -0.72085    -0.71843    -0.71101    -0.70716
    -0.70095    -0.67508    -0.66079    -0.65455    -0.62937    -0.62807
    -0.61774    -0.61530    -0.61467    -0.61318    -0.60978    -0.60638
    -0.60194    -0.60014    -0.59752    -0.59448    -0.59207    -0.59099
    -0.58798    -0.58719    -0.58543    -0.58266    -0.57914    -0.57864
    -0.57648    -0.57415    -0.57283    -0.56891    -0.56821    -0.56763
    -0.56397    -0.56267    -0.55128    -0.54419    -0.54143    -0.53088
    -0.52682    -0.52323    -0.51757    -0.50796    -0.50760    -0.50317
    -0.50170    -0.49965    -0.49798    -0.49520    -0.49351    -0.49250
    -0.48420    -0.48269    -0.47793    -0.47250    -0.47108    -0.46855
    -0.46646    -0.46395    -0.46273    -0.45790    -0.45738    -0.45356
    -0.45057    -0.44991    -0.44793    -0.44529    -0.44388    -0.44267
    -0.44222    -0.44114    -0.44097    -0.43833    -0.43619    -0.43483
    -0.43333    -0.43285    -0.43095    -0.43056    -0.42815    -0.42607
    -0.42598    -0.42535    -0.42324    -0.42252    -0.42250    -0.42107
    -0.42009    -0.41974    -0.41909    -0.41755    -0.41657    -0.41598
    -0.41520    -0.41377    -0.41234    -0.41016    -0.40701    -0.40494
    -0.40268    -0.40166    -0.39982    -0.39811    -0.39227    -0.39157
    -0.38782    -0.38425    -0.38405    -0.38218    -0.38089    -0.37665
    -0.37653    -0.37122    -0.36795    -0.36615    -0.36468    -0.36152
    -0.35877    -0.35752    -0.35594    -0.35256    -0.35147    -0.34900
    -0.34817    -0.34530    -0.34275    -0.34096    -0.34082    -0.33869
    -0.33677    -0.33527    -0.33395    -0.33194    -0.33010    -0.32845
    -0.32783    -0.32262    -0.32165    -0.32019    -0.31826    -0.31788
    -0.31664    -0.31217    -0.30748    -0.30569    -0.30253    -0.29704
    -0.29422    -0.29128    -0.28940    -0.28897    -0.28537    -0.28448
    -0.28369    -0.28238    -0.28212    -0.27888    -0.27407    -0.26865
    -0.26816    -0.26582    -0.26261    -0.26210    -0.25474    -0.25377
    -0.25230    -0.24962    -0.24576    -0.24518    -0.24437    -0.24399
    -0.24128    -0.23634    -0.23193    -0.23125    -0.22939    -0.22533
    -0.22461    -0.22212    -0.21490    -0.19645    -0.09499    -0.05400
    -0.04034    -0.03578    -0.02893    -0.01978    -0.01665    -0.01579
    -0.01363    -0.00937
 
  Peak memory usage:    861 Mb
  
  end of program scf
   
 Time(scf)  user:    10881.0  user+sys:    11020.0  wallclock:    30707.9
  
  start of program ch
  
  gridpoints used for charge fit        16700
    out of a possible maximum of        19269
  
   Electrostatic potential fitting constrained to reproduce
     total charge:                yes
     dipole moment:               no 
     traceless quadrupole moment: no 
     traceless octapole moment:   no 
  
  Atomic charges from electrostatic potential: 
   
 Atom       C1           C2           C3           C4           C5      
 Charge   -0.01873     -0.09982     -0.20551      0.25647      0.12864
   
 Atom       C6           C7           C8           C9           C10     
 Charge   -0.24159     -0.40699     -0.06916     -0.00505     -0.34559
   
 Atom       C11          O12          Si13         C14          C15     
 Charge    0.16615     -0.14808     -0.10766      0.11995      0.38702
   
 Atom       C16          C17          C18          C19          C20     
 Charge    0.26141     -0.12739     -0.39300     -0.25559      0.07064
   
 Atom       Si21         O22          C23          C24          P25     
 Charge   -0.18318     -0.35917     -0.17179     -0.07689      0.94497
   
 Atom       O26          N27          C28          C29          C30     
 Charge   -0.65297     -0.56709      0.06215      0.08825      0.08255
   
 Atom       C31          C32          C33          C34          C35     
 Charge    0.34495      0.11626      0.10888     -0.01776     -0.08331
   
 Atom       C36          C37          C38          C39          C40     
 Charge   -0.11860     -0.14062     -0.02832     -0.20359     -0.27160
   
 Atom       C41          C42          C43          C44          C45     
 Charge   -0.17707     -0.15517     -0.12946     -0.14763     -0.12834
   
 Atom       C46          C47          C48          C49          C50     
 Charge   -0.21554     -0.05940     -0.19053     -0.13839     -0.11363
   
 Atom       C51          C52          C53          C54          C55     
 Charge   -0.11928     -0.17060     -0.08625     -0.11070     -0.19277
   
 Atom       C56          C57          C58          C59          C60     
 Charge   -0.04852     -0.15155     -0.12161     -0.12943     -0.12375
   
 Atom       C61          C62          C63          C64          C65     
 Charge   -0.10166     -0.13691     -0.11616     -0.14996     -0.25136
   
 Atom       C66          C67          C68          C69          C70     
 Charge    0.30597      0.02608     -0.20325     -0.07878     -0.21639
   
 Atom       N71          S72          O73          O74          C75     
 Charge   -0.29240      0.62777     -0.41200     -0.38481      0.50241
   
 Atom       C76          C77          C78          C79          N80     
 Charge   -0.33997      0.17915     -0.41557      0.36477     -0.56221
   
 Atom       N81          C82          C83          C84          C85     
 Charge   -0.02301     -0.05261     -0.15964     -0.25527      0.10876
   
 Atom       H86          H87          H88          H89          H90     
 Charge    0.08012      0.13910      0.13670      0.18031      0.11467
   
 Atom       H91          H92          H93          H94          H95     
 Charge    0.11519      0.18201      0.13978      0.13063      0.11146
   
 Atom       H96          H97          H98          H99          H100    
 Charge    0.09854      0.11320      0.08741      0.11462     -0.01646
   
 Atom       H101         H102         H103         H104         H105    
 Charge    0.13902      0.14938      0.13661      0.12202      0.07557
   
 Atom       H106         H107         H108         H109         H110    
 Charge    0.10688      0.09616      0.12947      0.10637      0.12758
   
 Atom       H111         H112         H113         H114         H115    
 Charge    0.11953      0.11519      0.11582      0.12669      0.11472
   
 Atom       H116         H117         H118         H119         H120    
 Charge    0.11646      0.12535      0.08110      0.12031      0.11454
   
 Atom       H121         H122         H123         H124         H125    
 Charge    0.11777      0.12017      0.10889      0.11473      0.11449
   
 Atom       H126         H127         H128         H129         H130    
 Charge    0.13938      0.15296      0.09508      0.11712      0.11836
   
 Atom       H131         H132         H133         H134         H135    
 Charge    0.15821      0.16339      0.09811      0.17752      0.04833
   
 Atom       H136         H137         H138         H139         H140    
 Charge    0.28200      0.14774      0.15529      0.18935      0.11486
   
 Atom       S141         O142         C143         O144         F145    
 Charge    0.62091     -0.39291      0.34298     -0.43259     -0.08506
   
 Atom       F146         F147         H148    
 Charge   -0.11354     -0.12629      0.29415
  
  sum of atomic charges:     0.000000
   
 RMS Error   8.99E-04 hartrees
 
  Peak memory usage:    589 Mb
  
  end of program ch
   
 Time(ch)  user:       20.0  user+sys:       21.0  wallclock:       59.7
  
  start of program post
  
  Writing input files for PBF
  Peak memory usage:    536 Mb
  
  end of program post
   
 Time(post)  user:        0.0  user+sys:        0.0  wallclock:        0.6

  start of program pbf

Pbf Version 4.00

Molecular surface area:      861.15694   [A2]
Reaction field energy:       -15.14953   [kT]
  Peak memory usage: 559 Mb

  end of program pbf

 Time(pbf)  user:       15.8  user+sys:       15.9  wallclock:       41.3
  
  start of program solv
  
   number of surface charges from PBF   13398
   sum of surface charges     -0.00039
   
  nuclear repulsion energy.......   20931.899239237 hartrees
  Peak memory usage:    701 Mb
  
  end of program solv
   
 Time(solv)  user:       39.0  user+sys:       39.0  wallclock:       90.1
  
  start of program scf
  
  
       i  u  d  i  g                   
       t  p  i  c  r                                 RMS    maximum
       e  d  i  u  i                       energy  density   DIIS  
       r  t  s  t  d       total energy    change  change    error 
  
etot    1  N  N  1  U   -5577.23881193097           5.7E-05  8.2E-04
etot    2  N  Y  1  U   -5577.23919998030  3.9E-04  2.2E-05  9.7E-04
etot    3  N  Y  1  U   -5577.23964618218  4.5E-04  7.6E-06  3.9E-04
etot    4  N  Y  1  U   -5577.23973628086  9.0E-05  3.5E-06  1.5E-04
etot    5  N  N  1  U   -5577.23975000064  1.4E-05  0.0E+00  0.0E+00
  
  
 Energy components, in hartrees:
   (A)  Total zero-electron terms....   20934.61239361928
   (B)    Nuclear-nuclear............   20931.89923923707
   (C)    Nuclear-solvent............       2.71315438221
   (E)  Total one-electron terms.....  -49402.18743810728
   (F)    Electron-nuclear...........  -54934.69021715519
   (G)    Electron-solvent...........      -2.74737839517
   (H)    Kinetic....................    5535.25015744309
   (I)  Total two-electron terms.....   22890.33529448736
   (J)    Coulomb....................   23543.58991760715
   (K)    Exchange+Correlation.......    -653.25462311980
   (L)  Electronic energy............  -26511.85214361992  (E+I)
   (N)  Total quantum mech. energy...   -5577.23975000064  (A+L)
   (O)  Gas phase energy.............   -5577.20646784339
   (P)  Solution phase energy........   -5577.22263799415  (Q+R+S)
   (Q)    Total solute energy........   -5577.20552598767  (N-C-G)
   (R)    Total solvent energy.......      -0.01711200648  (C/2+G/2)
   (S)    Solute cavity energy.......       0.00000000000
   (U)  Reorganization energy........       0.00094185571  (Q-O)
   (V)  Solvation energy.............      -0.01617015077  (P-O)
  
 SCFE:  Solution phase energy: DFT(b3lyp)      -5577.22263799415 hartrees
        SCF iterations:   5
  
 
 HOMO energy:    -0.20022
 LUMO energy:    -0.09316
 
  Orbital energies (hartrees): 
   -89.12490   -89.09199   -77.24158   -66.11571   -66.10857   -24.72055
   -24.72026   -24.71958   -19.19849   -19.19323   -19.16045   -19.15627
   -19.11720   -19.11649   -19.11499   -14.39459   -14.39018   -14.36028
   -14.31305   -10.42472   -10.29018   -10.26441   -10.25549   -10.25506
   -10.25472   -10.24410   -10.24392   -10.22351   -10.21898   -10.21847
   -10.21800   -10.21773   -10.20840   -10.20833   -10.20807   -10.20329
   -10.20294   -10.20219   -10.20033   -10.20020   -10.19853   -10.19800
   -10.19642   -10.19606   -10.19436   -10.19418   -10.19219   -10.19106
   -10.19062   -10.19061   -10.19040   -10.18979   -10.18935   -10.18935
   -10.18797   -10.18770   -10.18709   -10.18698   -10.18680   -10.18616
   -10.18608   -10.18599   -10.18551   -10.18551   -10.18549   -10.18473
   -10.18434   -10.18394   -10.18385   -10.18382   -10.18334   -10.18303
   -10.18215   -10.18156   -10.17928   -10.17774   -10.17766   -10.17620
   -10.17460   -10.17436   -10.17359   -10.17333   -10.17281   -10.17258
   -10.17129   -10.17116   -10.17108   -10.17022   -10.16982   -10.16710
   -10.16535   -10.15864    -8.15086    -8.11645    -6.68610    -6.11610
    -6.11500    -6.11340    -6.08106    -6.08050    -6.08020    -5.26212
    -5.25543    -4.85078    -4.84993    -4.84751    -3.62119    -3.62069
    -3.62047    -3.61437    -3.61421    -3.61363    -1.30046    -1.21316
    -1.21121    -1.12743    -1.10305    -1.08398    -1.06308    -1.01894
    -1.00490    -0.97439    -0.97384    -0.97182    -0.95343    -0.87712
    -0.86872    -0.86745    -0.85848    -0.84652    -0.84008    -0.83993
    -0.83652    -0.82927    -0.82554    -0.82228    -0.81867    -0.80605
    -0.80398    -0.79756    -0.78730    -0.78199    -0.75717    -0.75421
    -0.75134    -0.74970    -0.74629    -0.74505    -0.74057    -0.73912
    -0.73756    -0.73693    -0.73504    -0.73280    -0.73141    -0.73010
    -0.72901    -0.72501    -0.72434    -0.72180    -0.71337    -0.71054
    -0.70429    -0.67402    -0.66481    -0.65135    -0.63235    -0.62791
    -0.62028    -0.61799    -0.61429    -0.61264    -0.61006    -0.60542
    -0.60438    -0.59965    -0.59532    -0.59386    -0.59356    -0.59294
    -0.59096    -0.58990    -0.58670    -0.58584    -0.58229    -0.58175
    -0.57792    -0.57718    -0.57553    -0.57481    -0.57218    -0.57122
    -0.56577    -0.56333    -0.55522    -0.54576    -0.54140    -0.53228
    -0.52704    -0.52549    -0.51995    -0.50819    -0.50616    -0.50542
    -0.50360    -0.50050    -0.49736    -0.49645    -0.49591    -0.49362
    -0.48661    -0.48533    -0.47971    -0.47398    -0.47029    -0.46861
    -0.46597    -0.46426    -0.46129    -0.46095    -0.45925    -0.45489
    -0.45202    -0.45064    -0.45005    -0.44902    -0.44805    -0.44618
    -0.44413    -0.44165    -0.44105    -0.43956    -0.43832    -0.43692
    -0.43548    -0.43422    -0.43317    -0.43202    -0.43049    -0.42891
    -0.42811    -0.42625    -0.42536    -0.42430    -0.42287    -0.42210
    -0.42144    -0.42079    -0.41928    -0.41760    -0.41725    -0.41603
    -0.41553    -0.41376    -0.41315    -0.41262    -0.41258    -0.41058
    -0.40589    -0.40433    -0.40266    -0.39493    -0.39449    -0.39377
    -0.39115    -0.38888    -0.38586    -0.38448    -0.38303    -0.37959
    -0.37560    -0.37138    -0.37113    -0.36744    -0.36471    -0.36437
    -0.35915    -0.35865    -0.35806    -0.35561    -0.35387    -0.35251
    -0.35048    -0.34702    -0.34557    -0.34435    -0.34141    -0.34012
    -0.33915    -0.33759    -0.33605    -0.33392    -0.33328    -0.33133
    -0.33073    -0.32595    -0.32474    -0.32350    -0.32141    -0.32094
    -0.31985    -0.31567    -0.31063    -0.30592    -0.30385    -0.30065
    -0.29747    -0.29345    -0.29164    -0.28937    -0.28765    -0.28644
    -0.28540    -0.28267    -0.28226    -0.28213    -0.27725    -0.27321
    -0.27202    -0.26719    -0.26447    -0.26048    -0.25862    -0.25355
    -0.25280    -0.25233    -0.24856    -0.24767    -0.24609    -0.24545
    -0.24422    -0.23917    -0.23560    -0.23517    -0.23320    -0.22960
    -0.22854    -0.22520    -0.21874    -0.20022    -0.09316    -0.05215
    -0.04373    -0.03308    -0.03186    -0.01849    -0.01700    -0.01646
    -0.01451    -0.01214
 
  Peak memory usage:    859 Mb
  
  end of program scf
   
 Time(scf)  user:     3129.0  user+sys:     3166.0  wallclock:     8312.2
  
  start of program sole
  
    SCRF                   solvation energy
  iteration          Hartrees            kcal/mol
     0               0.0000000            0.0000
     1              -0.0161702          -10.1469
  
  solvation energy not yet converged... 
  
  Peak memory usage:    635 Mb
  
  end of program sole
   
 Time(sole)  user:        0.0  user+sys:        0.0  wallclock:        0.5
  
  start of program ch
  
  gridpoints used for charge fit        16700
    out of a possible maximum of        16700
  
   Electrostatic potential fitting constrained to reproduce
     total charge:                yes
     dipole moment:               no 
     traceless quadrupole moment: no 
     traceless octapole moment:   no 
  
  Atomic charges from electrostatic potential: 
   
 Atom       C1           C2           C3           C4           C5      
 Charge   -0.01757     -0.09868     -0.21520      0.25946      0.13200
   
 Atom       C6           C7           C8           C9           C10     
 Charge   -0.24910     -0.42148     -0.07420     -0.01932     -0.35404
   
 Atom       C11          O12          Si13         C14          C15     
 Charge    0.18721     -0.13920     -0.13573      0.12340      0.38946
   
 Atom       C16          C17          C18          C19          C20     
 Charge    0.26026     -0.13242     -0.40097     -0.26155      0.08313
   
 Atom       Si21         O22          C23          C24          P25     
 Charge   -0.20147     -0.35250     -0.17854     -0.08459      0.93286
   
 Atom       O26          N27          C28          C29          C30     
 Charge   -0.64743     -0.55215      0.07185      0.08825      0.09676
   
 Atom       C31          C32          C33          C34          C35     
 Charge    0.35209      0.12005      0.11140     -0.01851     -0.09415
   
 Atom       C36          C37          C38          C39          C40     
 Charge   -0.11812     -0.14161     -0.03344     -0.21761     -0.27841
   
 Atom       C41          C42          C43          C44          C45     
 Charge   -0.17003     -0.15678     -0.12833     -0.15491     -0.13172
   
 Atom       C46          C47          C48          C49          C50     
 Charge   -0.22066     -0.06883     -0.19689     -0.14824     -0.11968
   
 Atom       C51          C52          C53          C54          C55     
 Charge   -0.12798     -0.17585     -0.09480     -0.11464     -0.20235
   
 Atom       C56          C57          C58          C59          C60     
 Charge   -0.04897     -0.16764     -0.12944     -0.13612     -0.13517
   
 Atom       C61          C62          C63          C64          C65     
 Charge   -0.10697     -0.14806     -0.11775     -0.15895     -0.25230
   
 Atom       C66          C67          C68          C69          C70     
 Charge    0.30894      0.03623     -0.22849     -0.07569     -0.22229
   
 Atom       N71          S72          O73          O74          C75     
 Charge   -0.27993      0.63726     -0.43421     -0.39575      0.50553
   
 Atom       C76          C77          C78          C79          N80     
 Charge   -0.34083      0.18317     -0.42142      0.37555     -0.58546
   
 Atom       N81          C82          C83          C84          C85     
 Charge   -0.02345     -0.04463     -0.16311     -0.25665      0.10299
   
 Atom       H86          H87          H88          H89          H90     
 Charge    0.08186      0.14654      0.14290      0.18764      0.12214
   
 Atom       H91          H92          H93          H94          H95     
 Charge    0.11747      0.18690      0.14556      0.13748      0.11837
   
 Atom       H96          H97          H98          H99          H100    
 Charge    0.10145      0.11816      0.08863      0.11790     -0.01259
   
 Atom       H101         H102         H103         H104         H105    
 Charge    0.14518      0.15645      0.13550      0.12495      0.07476
   
 Atom       H106         H107         H108         H109         H110    
 Charge    0.11029      0.09497      0.13585      0.11542      0.13656
   
 Atom       H111         H112         H113         H114         H115    
 Charge    0.12711      0.12223      0.12307      0.13053      0.11805
   
 Atom       H116         H117         H118         H119         H120    
 Charge    0.12099      0.12921      0.08460      0.12746      0.12164
   
 Atom       H121         H122         H123         H124         H125    
 Charge    0.12487      0.12811      0.11670      0.12354      0.12015
   
 Atom       H126         H127         H128         H129         H130    
 Charge    0.14782      0.15913      0.08709      0.13074      0.12333
   
 Atom       H131         H132         H133         H134         H135    
 Charge    0.16077      0.16048      0.10692      0.18724      0.05451
   
 Atom       H136         H137         H138         H139         H140    
 Charge    0.27934      0.15281      0.16318      0.19839      0.11671
   
 Atom       S141         O142         C143         O144         F145    
 Charge    0.62331     -0.39042      0.34353     -0.44666     -0.08392
   
 Atom       F146         F147         H148    
 Charge   -0.11418     -0.13161      0.28800
  
  sum of atomic charges:     0.000000
   
 RMS Error   9.09E-04 hartrees
 
  Peak memory usage:    588 Mb
  
  end of program ch
   
 Time(ch)  user:       20.0  user+sys:       21.0  wallclock:       50.4
  
  start of program post
  
  Writing input files for PBF
  Peak memory usage:    536 Mb
  
  end of program post
   
 Time(post)  user:        0.0  user+sys:        0.0  wallclock:        0.6

  start of program pbf

Pbf Version 4.00

Molecular surface area:      861.15694   [A2]
Reaction field energy:       -17.33686   [kT]
  Peak memory usage: 559 Mb

  end of program pbf

 Time(pbf)  user:       15.8  user+sys:       15.9  wallclock:       32.1
  
  start of program solv
  
   number of surface charges from PBF   13398
   sum of surface charges     -0.00042
   
  nuclear repulsion energy.......   20931.899239237 hartrees
  Peak memory usage:    701 Mb
  
  end of program solv
   
 Time(solv)  user:       38.0  user+sys:       38.0  wallclock:      101.4
  
  start of program scf
  
  
       i  u  d  i  g                   
       t  p  i  c  r                                 RMS    maximum
       e  d  i  u  i                       energy  density   DIIS  
       r  t  s  t  d       total energy    change  change    error 
  
etot    1  N  N  1  U   -5577.24210021432           7.6E-06  1.0E-04
etot    2  N  N  1  U   -5577.24207870414 -2.2E-05  0.0E+00  0.0E+00
  
  
 Energy components, in hartrees:
   (A)  Total zero-electron terms....   20934.87555112986
   (B)    Nuclear-nuclear............   20931.89923923707
   (C)    Nuclear-solvent............       2.97631189278
   (E)  Total one-electron terms.....  -49403.02236464025
   (F)    Electron-nuclear...........  -54935.27833450354
   (G)    Electron-solvent...........      -3.01323281153
   (H)    Kinetic....................    5535.26920267482
   (I)  Total two-electron terms.....   22890.90473480626
   (J)    Coulomb....................   23544.16220300829
   (K)    Exchange+Correlation.......    -653.25746820203
   (L)  Electronic energy............  -26512.11762983400  (E+I)
   (N)  Total quantum mech. energy...   -5577.24207870414  (A+L)
   (O)  Gas phase energy.............   -5577.20646784339
   (P)  Solution phase energy........   -5577.22361824477  (Q+R+S)
   (Q)    Total solute energy........   -5577.20515778539  (N-C-G)
   (R)    Total solvent energy.......      -0.01846045937  (C/2+G/2)
   (S)    Solute cavity energy.......       0.00000000000
   (U)  Reorganization energy........       0.00131005799  (Q-O)
   (V)  Solvation energy.............      -0.01715040138  (P-O)
  
 SCFE:  Solution phase energy: DFT(b3lyp)      -5577.22361824477 hartrees
        SCF iterations:   2
  
 
 HOMO energy:    -0.23077
 LUMO energy:    -0.09193
 
  Orbital energies (hartrees): 
   -83.70763   -71.99033   -62.23513   -51.12838   -49.81966   -38.53460
   -36.27581   -25.34557   -23.88862   -17.82132   -16.78692   -16.47698
   -14.59430   -14.30056   -13.96906   -13.92773   -13.87614   -13.85411
   -13.60507   -13.53203   -13.50464   -13.45268   -13.44316   -13.27416
   -13.17218   -12.55143   -12.40291   -12.35015   -11.94500   -11.68662
   -11.60373   -11.51179   -11.16787   -11.12693   -11.07220   -10.93628
   -10.93588   -10.91546   -10.82329   -10.74986   -10.69833   -10.68911
   -10.63380   -10.41316   -10.40697   -10.35759   -10.33088   -10.32941
   -10.31992   -10.31160   -10.26104   -10.20772   -10.20513   -10.20074
   -10.19606   -10.19243   -10.19022   -10.18594   -10.18496   -10.18139
   -10.16583   -10.16325   -10.15353   -10.14092   -10.13610   -10.13410
   -10.13163   -10.13120   -10.12983   -10.12655   -10.11719   -10.09496
   -10.08817   -10.07281   -10.07105   -10.04480   -10.03238   -10.02310
   -10.00689   -10.00483    -9.96111    -9.86843    -9.82693    -9.80877
    -9.79571    -9.69758    -9.58982    -9.58947    -9.56043    -9.44425
    -9.32524    -9.26140    -9.24745    -9.16633    -9.14396    -8.92357
    -8.90004    -8.85042    -8.73859    -8.58362    -7.10067    -6.67615
    -6.53822    -6.42839    -6.41331    -5.92491    -4.30238    -4.12663
    -3.90486    -3.89981    -3.69651    -3.69038    -1.26303    -1.17916
    -1.13810    -1.09706    -1.09180    -0.97850    -0.95769    -0.95418
    -0.92863    -0.91286    -0.87660    -0.85220    -0.83396    -0.83275
    -0.82537    -0.81505    -0.81313    -0.80738    -0.80096    -0.80019
    -0.78567    -0.77141    -0.75918    -0.75677    -0.75376    -0.74462
    -0.74362    -0.73992    -0.73606    -0.73436    -0.72870    -0.72027
    -0.71598    -0.71034    -0.70495    -0.70406    -0.70256    -0.70026
    -0.69695    -0.69531    -0.69147    -0.68968    -0.67790    -0.67668
    -0.67285    -0.67210    -0.66876    -0.66420    -0.66294    -0.65298
    -0.64715    -0.64074    -0.63232    -0.62211    -0.61785    -0.60630
    -0.60317    -0.60253    -0.59106    -0.58433    -0.58337    -0.58329
    -0.58233    -0.58108    -0.57958    -0.57762    -0.57594    -0.57515
    -0.56972    -0.56907    -0.56832    -0.56831    -0.56766    -0.56522
    -0.55727    -0.55391    -0.55204    -0.54740    -0.54567    -0.54427
    -0.54362    -0.54218    -0.54207    -0.54154    -0.54107    -0.54049
    -0.53923    -0.53592    -0.53536    -0.53219    -0.52751    -0.52151
    -0.51991    -0.51745    -0.51117    -0.50896    -0.50813    -0.50727
    -0.50617    -0.50462    -0.49801    -0.49339    -0.49281    -0.49097
    -0.48850    -0.48682    -0.48459    -0.48358    -0.48311    -0.48269
    -0.48074    -0.47923    -0.47747    -0.47522    -0.46686    -0.46664
    -0.46618    -0.46588    -0.46556    -0.46526    -0.46462    -0.46328
    -0.46257    -0.45974    -0.45733    -0.45663    -0.45625    -0.45292
    -0.45241    -0.45087    -0.44875    -0.44788    -0.44715    -0.44609
    -0.44208    -0.44168    -0.44083    -0.43989    -0.43781    -0.43689
    -0.43659    -0.43612    -0.43508    -0.43374    -0.43111    -0.43001
    -0.42889    -0.42768    -0.42640    -0.42640    -0.42156    -0.42050
    -0.42015    -0.41997    -0.41965    -0.41891    -0.41732    -0.41715
    -0.41687    -0.41640    -0.41500    -0.41483    -0.41038    -0.40937
    -0.40726    -0.40680    -0.40672    -0.40581    -0.40253    -0.40202
    -0.40168    -0.39988    -0.39830    -0.39712    -0.39541    -0.39165
    -0.39107    -0.39005    -0.38664    -0.38296    -0.38256    -0.38198
    -0.37525    -0.37104    -0.36885    -0.36879    -0.36568    -0.36548
    -0.36416    -0.36320    -0.36163    -0.36074    -0.36028    -0.36021
    -0.35961    -0.35714    -0.35584    -0.35447    -0.35157    -0.35131
    -0.35043    -0.34830    -0.34562    -0.33593    -0.33285    -0.31171
    -0.30681    -0.30569    -0.30427    -0.29746    -0.29130    -0.28790
    -0.28640    -0.28237    -0.27896    -0.27683    -0.27440    -0.27343
    -0.25771    -0.25489    -0.25325    -0.25319    -0.24465    -0.24177
    -0.24141    -0.23921    -0.23432    -0.23077    -0.09193    -0.05121
    -0.04341    -0.03240    -0.03165    -0.01795    -0.01658    -0.01596
    -0.01391    -0.01184
 
  Peak memory usage:    859 Mb
  
  end of program scf
   
 Time(scf)  user:      823.0  user+sys:      832.0  wallclock:     2061.6
  
  start of program sole
  
    SCRF                   solvation energy
  iteration          Hartrees            kcal/mol
     0               0.0000000            0.0000
     1              -0.0161702          -10.1469
     2              -0.0171504          -10.7620
  
  solvation energy not yet converged... 
  
  Peak memory usage:    635 Mb
  
  end of program sole
   
 Time(sole)  user:        0.0  user+sys:        0.0  wallclock:        0.5
  
  start of program ch
  
  gridpoints used for charge fit        16700
    out of a possible maximum of        16700
  
   Electrostatic potential fitting constrained to reproduce
     total charge:                yes
     dipole moment:               no 
     traceless quadrupole moment: no 
     traceless octapole moment:   no 
  
  Atomic charges from electrostatic potential: 
   
 Atom       C1           C2           C3           C4           C5      
 Charge   -0.01926     -0.09813     -0.21433      0.25914      0.13196
   
 Atom       C6           C7           C8           C9           C10     
 Charge   -0.24876     -0.42117     -0.07343     -0.02212     -0.35634
   
 Atom       C11          O12          Si13         C14          C15     
 Charge    0.18797     -0.13823     -0.14007      0.12405      0.38831
   
 Atom       C16          C17          C18          C19          C20     
 Charge    0.26061     -0.13430     -0.39995     -0.26175      0.08273
   
 Atom       Si21         O22          C23          C24          P25     
 Charge   -0.20256     -0.35122     -0.17703     -0.08429      0.93021
   
 Atom       O26          N27          C28          C29          C30     
 Charge   -0.64574     -0.55093      0.07267      0.08733      0.09809
   
 Atom       C31          C32          C33          C34          C35     
 Charge    0.35031      0.11916      0.11040     -0.01942     -0.09761
   
 Atom       C36          C37          C38          C39          C40     
 Charge   -0.11785     -0.14245     -0.03489     -0.21946     -0.27835
   
 Atom       C41          C42          C43          C44          C45     
 Charge   -0.16904     -0.15645     -0.12899     -0.15542     -0.13315
   
 Atom       C46          C47          C48          C49          C50     
 Charge   -0.22032     -0.06848     -0.19560     -0.14854     -0.11949
   
 Atom       C51          C52          C53          C54          C55     
 Charge   -0.12801     -0.17616     -0.09475     -0.11414     -0.20342
   
 Atom       C56          C57          C58          C59          C60     
 Charge   -0.04744     -0.16816     -0.12992     -0.13566     -0.13535
   
 Atom       C61          C62          C63          C64          C65     
 Charge   -0.10714     -0.14774     -0.11722     -0.15763     -0.25265
   
 Atom       C66          C67          C68          C69          C70     
 Charge    0.30667      0.03537     -0.22882     -0.07334     -0.22706
   
 Atom       N71          S72          O73          O74          C75     
 Charge   -0.27800      0.63149     -0.43509     -0.39282      0.50270
   
 Atom       C76          C77          C78          C79          N80     
 Charge   -0.34008      0.18534     -0.41953      0.37528     -0.58860
   
 Atom       N81          C82          C83          C84          C85     
 Charge   -0.02553     -0.03917     -0.15951     -0.25564      0.10156
   
 Atom       H86          H87          H88          H89          H90     
 Charge    0.08245      0.14697      0.14318      0.18866      0.12274
   
 Atom       H91          H92          H93          H94          H95     
 Charge    0.11738      0.18686      0.14584      0.13776      0.11879
   
 Atom       H96          H97          H98          H99          H100    
 Charge    0.10132      0.11901      0.08872      0.11801     -0.01139
   
 Atom       H101         H102         H103         H104         H105    
 Charge    0.14569      0.15633      0.13484      0.12493      0.07465
   
 Atom       H106         H107         H108         H109         H110    
 Charge    0.11047      0.09475      0.13649      0.11654      0.13747
   
 Atom       H111         H112         H113         H114         H115    
 Charge    0.12777      0.12283      0.12365      0.13049      0.11786
   
 Atom       H116         H117         H118         H119         H120    
 Charge    0.12112      0.12907      0.08519      0.12805      0.12233
   
 Atom       H121         H122         H123         H124         H125    
 Charge    0.12541      0.12869      0.11756      0.12451      0.12073
   
 Atom       H126         H127         H128         H129         H130    
 Charge    0.14850      0.15973      0.08655      0.13186      0.12345
   
 Atom       H131         H132         H133         H134         H135    
 Charge    0.16143      0.15977      0.10776      0.18857      0.05563
   
 Atom       H136         H137         H138         H139         H140    
 Charge    0.27825      0.15281      0.16360      0.19877      0.11606
   
 Atom       S141         O142         C143         O144         F145    
 Charge    0.62344     -0.38878      0.34276     -0.44807     -0.08342
   
 Atom       F146         F147         H148    
 Charge   -0.11420     -0.13177      0.28590
  
  sum of atomic charges:     0.000000
   
 RMS Error   9.09E-04 hartrees
 
  Peak memory usage:    588 Mb
  
  end of program ch
   
 Time(ch)  user:       20.0  user+sys:       21.0  wallclock:       67.0
  
  start of program post
  
  Writing input files for PBF
  Peak memory usage:    536 Mb
  
  end of program post
   
 Time(post)  user:        0.0  user+sys:        0.0  wallclock:        0.4

  start of program pbf

Pbf Version 4.00

Molecular surface area:      861.15694   [A2]
Reaction field energy:       -17.71064   [kT]
  Peak memory usage: 559 Mb

  end of program pbf

 Time(pbf)  user:       17.3  user+sys:       17.4  wallclock:       48.6
  
  start of program solv
  
   number of surface charges from PBF   13398
   sum of surface charges     -0.00043
   
  nuclear repulsion energy.......   20931.899239237 hartrees
  Peak memory usage:    701 Mb
  
  end of program solv
   
 Time(solv)  user:       39.0  user+sys:       39.0  wallclock:      101.4
  
  start of program scf
  
  
       i  u  d  i  g                   
       t  p  i  c  r                                 RMS    maximum
       e  d  i  u  i                       energy  density   DIIS  
       r  t  s  t  d       total energy    change  change    error 
  
etot    1  N  N  1  U   -5577.24245625305           1.3E-05  1.7E-04
etot    2  N  Y  1  U   -5577.24229459979 -1.6E-04  8.9E-06  4.2E-04
etot    3  N  Y  1  U   -5577.24248640693  1.9E-04  5.1E-07  2.2E-05
etot    4  N  N  1  U   -5577.24248680595  4.0E-07  0.0E+00  0.0E+00
  
  
 Energy components, in hartrees:
   (A)  Total zero-electron terms....   20934.94820651449
   (B)    Nuclear-nuclear............   20931.89923923707
   (C)    Nuclear-solvent............       3.04896727741
   (E)  Total one-electron terms.....  -49402.78663314774
   (F)    Electron-nuclear...........  -54934.95472940976
   (G)    Electron-solvent...........      -3.08617055460
   (H)    Kinetic....................    5535.25426681662
   (I)  Total two-electron terms.....   22890.59593982730
   (J)    Coulomb....................   23543.85170642886
   (K)    Exchange+Correlation.......    -653.25576660156
   (L)  Electronic energy............  -26512.19069332044  (E+I)
   (N)  Total quantum mech. energy...   -5577.24248680595  (A+L)
   (O)  Gas phase energy.............   -5577.20646784339
   (P)  Solution phase energy........   -5577.22388516736  (Q+R+S)
   (Q)    Total solute energy........   -5577.20528352877  (N-C-G)
   (R)    Total solvent energy.......      -0.01860163859  (C/2+G/2)
   (S)    Solute cavity energy.......       0.00000000000
   (U)  Reorganization energy........       0.00118431462  (Q-O)
   (V)  Solvation energy.............      -0.01741732398  (P-O)
  
 SCFE:  Solution phase energy: DFT(b3lyp)      -5577.22388516736 hartrees
        SCF iterations:   4
  
 
 HOMO energy:    -0.20052
 LUMO energy:    -0.09265
 
  Orbital energies (hartrees): 
   -89.12487   -89.09247   -77.24153   -66.11572   -66.10857   -24.72118
   -24.72114   -24.72060   -19.19837   -19.19330   -19.16144   -19.15817
   -19.11754   -19.11735   -19.11481   -14.39409   -14.38932   -14.35989
   -14.31312   -10.42543   -10.28920   -10.26433   -10.25536   -10.25490
   -10.25454   -10.24342   -10.24332   -10.22318   -10.21876   -10.21802
   -10.21725   -10.21704   -10.20814   -10.20787   -10.20750   -10.20307
   -10.20285   -10.20167   -10.20047   -10.19992   -10.19885   -10.19804
   -10.19627   -10.19624   -10.19404   -10.19399   -10.19189   -10.19128
   -10.19103   -10.19074   -10.19030   -10.18993   -10.18952   -10.18908
   -10.18806   -10.18781   -10.18742   -10.18728   -10.18686   -10.18654
   -10.18633   -10.18597   -10.18584   -10.18584   -10.18577   -10.18532
   -10.18438   -10.18434   -10.18423   -10.18408   -10.18343   -10.18326
   -10.18276   -10.18187   -10.17915   -10.17791   -10.17754   -10.17681
   -10.17562   -10.17526   -10.17438   -10.17368   -10.17308   -10.17258
   -10.17154   -10.17129   -10.17119   -10.17066   -10.16978   -10.16729
   -10.16559   -10.15864    -8.15090    -8.11692    -6.68606    -6.11613
    -6.11505    -6.11343    -6.08153    -6.08098    -6.08068    -5.26213
    -5.25544    -4.85074    -4.84989    -4.84747    -3.62121    -3.62070
    -3.62049    -3.61438    -3.61423    -3.61364    -1.30129    -1.21394
    -1.21210    -1.12804    -1.10306    -1.08446    -1.06306    -1.01980
    -1.00447    -0.97489    -0.97375    -0.97156    -0.95296    -0.87727
    -0.86852    -0.86733    -0.85879    -0.84633    -0.84024    -0.84012
    -0.83674    -0.82992    -0.82577    -0.82199    -0.81882    -0.80632
    -0.80347    -0.79730    -0.78751    -0.78150    -0.75667    -0.75445
    -0.75112    -0.74951    -0.74642    -0.74482    -0.74085    -0.73914
    -0.73767    -0.73722    -0.73522    -0.73295    -0.73158    -0.73030
    -0.72961    -0.72558    -0.72460    -0.72196    -0.71401    -0.71029
    -0.70456    -0.67366    -0.66506    -0.65103    -0.63269    -0.62755
    -0.62047    -0.61816    -0.61438    -0.61225    -0.60970    -0.60498
    -0.60453    -0.59953    -0.59533    -0.59380    -0.59345    -0.59280
    -0.59120    -0.59007    -0.58683    -0.58606    -0.58288    -0.58190
    -0.57839    -0.57738    -0.57627    -0.57533    -0.57223    -0.57129
    -0.56603    -0.56313    -0.55541    -0.54586    -0.54097    -0.53238
    -0.52716    -0.52560    -0.52012    -0.50814    -0.50599    -0.50558
    -0.50369    -0.50080    -0.49721    -0.49666    -0.49595    -0.49354
    -0.48686    -0.48558    -0.47971    -0.47408    -0.46996    -0.46837
    -0.46600    -0.46414    -0.46144    -0.46073    -0.45973    -0.45503
    -0.45248    -0.45061    -0.45002    -0.44969    -0.44825    -0.44626
    -0.44440    -0.44158    -0.44117    -0.43918    -0.43852    -0.43715
    -0.43571    -0.43455    -0.43322    -0.43202    -0.43036    -0.42927
    -0.42833    -0.42653    -0.42578    -0.42471    -0.42280    -0.42213
    -0.42122    -0.42063    -0.41934    -0.41778    -0.41714    -0.41614
    -0.41550    -0.41395    -0.41319    -0.41269    -0.41258    -0.41091
    -0.40644    -0.40448    -0.40288    -0.39489    -0.39444    -0.39372
    -0.39198    -0.38896    -0.38604    -0.38464    -0.38307    -0.37982
    -0.37527    -0.37153    -0.37124    -0.36761    -0.36474    -0.36421
    -0.35927    -0.35875    -0.35796    -0.35592    -0.35398    -0.35275
    -0.35059    -0.34704    -0.34577    -0.34468    -0.34161    -0.33997
    -0.33940    -0.33769    -0.33635    -0.33468    -0.33325    -0.33159
    -0.33105    -0.32641    -0.32505    -0.32403    -0.32166    -0.32114
    -0.32015    -0.31621    -0.31083    -0.30604    -0.30369    -0.30081
    -0.29762    -0.29357    -0.29173    -0.28970    -0.28782    -0.28644
    -0.28549    -0.28258    -0.28219    -0.28198    -0.27745    -0.27364
    -0.27224    -0.26740    -0.26407    -0.26007    -0.25890    -0.25337
    -0.25276    -0.25225    -0.24891    -0.24800    -0.24613    -0.24570
    -0.24386    -0.23933    -0.23620    -0.23536    -0.23342    -0.23022
    -0.22882    -0.22538    -0.21896    -0.20052    -0.09265    -0.05192
    -0.04398    -0.03282    -0.03206    -0.01824    -0.01712    -0.01627
    -0.01417    -0.01228
 
  Peak memory usage:    859 Mb
  
  end of program scf
   
 Time(scf)  user:     2337.0  user+sys:     2362.0  wallclock:     5608.8
  
  start of program sole
  
    SCRF                   solvation energy
  iteration          Hartrees            kcal/mol
     0               0.0000000            0.0000
     1              -0.0161702          -10.1469
     2              -0.0171504          -10.7620
     3              -0.0174173          -10.9295
  
  solvation energy not yet converged... 
  
  Peak memory usage:    635 Mb
  
  end of program sole
   
 Time(sole)  user:        0.0  user+sys:        0.0  wallclock:        0.4
  
  start of program ch
  
  gridpoints used for charge fit        16700
    out of a possible maximum of        16700
  
   Electrostatic potential fitting constrained to reproduce
     total charge:                yes
     dipole moment:               no 
     traceless quadrupole moment: no 
     traceless octapole moment:   no 
  
  Atomic charges from electrostatic potential: 
   
 Atom       C1           C2           C3           C4           C5      
 Charge   -0.01810     -0.09832     -0.21525      0.25924      0.13226
   
 Atom       C6           C7           C8           C9           C10     
 Charge   -0.24918     -0.42217     -0.07401     -0.02116     -0.35525
   
 Atom       C11          O12          Si13         C14          C15     
 Charge    0.18871     -0.13830     -0.13873      0.12396      0.38941
   
 Atom       C16          C17          C18          C19          C20     
 Charge    0.26025     -0.13329     -0.40103     -0.26194      0.08340
   
 Atom       Si21         O22          C23          C24          P25     
 Charge   -0.20238     -0.35161     -0.17828     -0.08471      0.93113
   
 Atom       O26          N27          C28          C29          C30     
 Charge   -0.64646     -0.55044      0.07287      0.08794      0.09815
   
 Atom       C31          C32          C33          C34          C35     
 Charge    0.35141      0.11991      0.11130     -0.01887     -0.09606
   
 Atom       C36          C37          C38          C39          C40     
 Charge   -0.11798     -0.14178     -0.03426     -0.21881     -0.27844
   
 Atom       C41          C42          C43          C44          C45     
 Charge   -0.16888     -0.15669     -0.12853     -0.15536     -0.13234
   
 Atom       C46          C47          C48          C49          C50     
 Charge   -0.22080     -0.06914     -0.19659     -0.14878     -0.11980
   
 Atom       C51          C52          C53          C54          C55     
 Charge   -0.12838     -0.17621     -0.09517     -0.11474     -0.20342
   
 Atom       C56          C57          C58          C59          C60     
 Charge   -0.04785     -0.16909     -0.12993     -0.13615     -0.13566
   
 Atom       C61          C62          C63          C64          C65     
 Charge   -0.10742     -0.14840     -0.11764     -0.15912     -0.25200
   
 Atom       C66          C67          C68          C69          C70     
 Charge    0.30727      0.03750     -0.22998     -0.07454     -0.22410
   
 Atom       N71          S72          O73          O74          C75     
 Charge   -0.27614      0.63428     -0.43594     -0.39507      0.50459
   
 Atom       C76          C77          C78          C79          N80     
 Charge   -0.34082      0.18421     -0.42095      0.37560     -0.58763
   
 Atom       N81          C82          C83          C84          C85     
 Charge   -0.02377     -0.04310     -0.16161     -0.25633      0.10171
   
 Atom       H86          H87          H88          H89          H90     
 Charge    0.08199      0.14705      0.14323      0.18831      0.12282
   
 Atom       H91          H92          H93          H94          H95     
 Charge    0.11726      0.18693      0.14583      0.13786      0.11884
   
 Atom       H96          H97          H98          H99          H100    
 Charge    0.10118      0.11863      0.08857      0.11781     -0.01189
   
 Atom       H101         H102         H103         H104         H105    
 Charge    0.14548      0.15668      0.13482      0.12488      0.07444
   
 Atom       H106         H107         H108         H109         H110    
 Charge    0.11023      0.09469      0.13649      0.11653      0.13747
   
 Atom       H111         H112         H113         H114         H115    
 Charge    0.12771      0.12279      0.12358      0.13050      0.11783
   
 Atom       H116         H117         H118         H119         H120    
 Charge    0.12105      0.12935      0.08486      0.12806      0.12224
   
 Atom       H121         H122         H123         H124         H125    
 Charge    0.12542      0.12864      0.11750      0.12449      0.12064
   
 Atom       H126         H127         H128         H129         H130    
 Charge    0.14870      0.15941      0.08620      0.13165      0.12364
   
 Atom       H131         H132         H133         H134         H135    
 Charge    0.16093      0.15983      0.10788      0.18863      0.05532
   
 Atom       H136         H137         H138         H139         H140    
 Charge    0.27876      0.15321      0.16409      0.19901      0.11645
   
 Atom       S141         O142         C143         O144         F145    
 Charge    0.62319     -0.38956      0.34312     -0.44768     -0.08364
   
 Atom       F146         F147         H148    
 Charge   -0.11423     -0.13199      0.28605
  
  sum of atomic charges:     0.000000
   
 RMS Error   9.09E-04 hartrees
 
  Peak memory usage:    588 Mb
  
  end of program ch
   
 Time(ch)  user:       20.0  user+sys:       21.0  wallclock:       47.2
  
  start of program post
  
  Writing input files for PBF
  Peak memory usage:    536 Mb
  
  end of program post
   
 Time(post)  user:        0.0  user+sys:        0.0  wallclock:        0.5

  start of program pbf

Pbf Version 4.00

Molecular surface area:      861.15694   [A2]
Reaction field energy:       -17.61647   [kT]
  Peak memory usage: 559 Mb

  end of program pbf

 Time(pbf)  user:       14.9  user+sys:       15.0  wallclock:       30.8
  
  start of program solv
  
   number of surface charges from PBF   13398
   sum of surface charges     -0.00042
   
  nuclear repulsion energy.......   20931.899239237 hartrees
  Peak memory usage:    701 Mb
  
  end of program solv
   
 Time(solv)  user:       38.0  user+sys:       38.0  wallclock:       66.6
  
  start of program scf
  
  
       i  u  d  i  g                   
       t  p  i  c  r                                 RMS    maximum
       e  d  i  u  i                       energy  density   DIIS  
       r  t  s  t  d       total energy    change  change    error 
  
etot    1  N  N  1  U   -5577.24239621210           8.5E-07  1.4E-05
etot    2  N  N  1  U   -5577.24239579211 -4.2E-07  0.0E+00  0.0E+00
  
  
 Energy components, in hartrees:
   (A)  Total zero-electron terms....   20934.92293808092
   (B)    Nuclear-nuclear............   20931.89923923707
   (C)    Nuclear-solvent............       3.02369884385
   (E)  Total one-electron terms.....  -49402.73272298175
   (F)    Electron-nuclear...........  -54934.92580940286
   (G)    Electron-solvent...........      -3.06078331670
   (H)    Kinetic....................    5535.25386973782
   (I)  Total two-electron terms.....   22890.56738910872
   (J)    Coulomb....................   23543.82310336252
   (K)    Exchange+Correlation.......    -653.25571425380
   (L)  Electronic energy............  -26512.16533387303  (E+I)
   (N)  Total quantum mech. energy...   -5577.24239579211  (A+L)
   (O)  Gas phase energy.............   -5577.20646784339
   (P)  Solution phase energy........   -5577.22385355568  (Q+R+S)
   (Q)    Total solute energy........   -5577.20531131925  (N-C-G)
   (R)    Total solvent energy.......      -0.01854223643  (C/2+G/2)
   (S)    Solute cavity energy.......       0.00000000000
   (U)  Reorganization energy........       0.00115652413  (Q-O)
   (V)  Solvation energy.............      -0.01738571229  (P-O)
  
 SCFE:  Solution phase energy: DFT(b3lyp)      -5577.22385355568 hartrees
        SCF iterations:   2
  
 
 HOMO energy:    -0.20057
 LUMO energy:    -0.09265
 
  Orbital energies (hartrees): 
   -89.12498   -89.09247   -77.24148   -66.11574   -66.10867   -24.72117
   -24.72113   -24.72059   -19.19816   -19.19338   -19.16195   -19.15786
   -19.11792   -19.11701   -19.11473   -14.39405   -14.38912   -14.36009
   -14.31298   -10.42545   -10.28926   -10.26455   -10.25527   -10.25496
   -10.25437   -10.24364   -10.24331   -10.22295   -10.21871   -10.21804
   -10.21722   -10.21700   -10.20823   -10.20770   -10.20759   -10.20300
   -10.20290   -10.20166   -10.20050   -10.19979   -10.19893   -10.19809
   -10.19628   -10.19617   -10.19410   -10.19392   -10.19190   -10.19121
   -10.19121   -10.19075   -10.19016   -10.18989   -10.18939   -10.18906
   -10.18800   -10.18773   -10.18744   -10.18734   -10.18690   -10.18681
   -10.18633   -10.18595   -10.18580   -10.18579   -10.18578   -10.18529
   -10.18447   -10.18439   -10.18416   -10.18404   -10.18340   -10.18321
   -10.18269   -10.18202   -10.17923   -10.17784   -10.17763   -10.17681
   -10.17568   -10.17532   -10.17439   -10.17351   -10.17318   -10.17244
   -10.17172   -10.17141   -10.17099   -10.17073   -10.16978   -10.16751
   -10.16553   -10.15886    -8.15100    -8.11692    -6.68601    -6.11623
    -6.11515    -6.11353    -6.08153    -6.08097    -6.08068    -5.26216
    -5.25555    -4.85069    -4.84984    -4.84741    -3.62123    -3.62073
    -3.62052    -3.61449    -3.61433    -3.61375    -1.30128    -1.21393
    -1.21209    -1.12810    -1.10303    -1.08445    -1.06302    -1.01985
    -1.00446    -0.97490    -0.97369    -0.97163    -0.95293    -0.87728
    -0.86849    -0.86731    -0.85885    -0.84631    -0.84025    -0.84011
    -0.83675    -0.82991    -0.82576    -0.82191    -0.81882    -0.80634
    -0.80349    -0.79731    -0.78758    -0.78149    -0.75664    -0.75448
    -0.75113    -0.74951    -0.74643    -0.74480    -0.74085    -0.73912
    -0.73767    -0.73724    -0.73522    -0.73296    -0.73160    -0.73032
    -0.72961    -0.72557    -0.72460    -0.72194    -0.71400    -0.71028
    -0.70461    -0.67365    -0.66505    -0.65101    -0.63270    -0.62753
    -0.62048    -0.61817    -0.61440    -0.61224    -0.60970    -0.60496
    -0.60456    -0.59951    -0.59533    -0.59381    -0.59345    -0.59281
    -0.59122    -0.59006    -0.58683    -0.58607    -0.58287    -0.58191
    -0.57839    -0.57738    -0.57626    -0.57532    -0.57223    -0.57129
    -0.56606    -0.56312    -0.55540    -0.54587    -0.54095    -0.53240
    -0.52716    -0.52562    -0.52013    -0.50813    -0.50600    -0.50558
    -0.50369    -0.50081    -0.49721    -0.49665    -0.49593    -0.49352
    -0.48686    -0.48561    -0.47971    -0.47408    -0.46995    -0.46838
    -0.46601    -0.46413    -0.46145    -0.46073    -0.45974    -0.45504
    -0.45248    -0.45061    -0.45001    -0.44968    -0.44825    -0.44626
    -0.44441    -0.44157    -0.44117    -0.43917    -0.43852    -0.43715
    -0.43571    -0.43454    -0.43321    -0.43202    -0.43035    -0.42927
    -0.42833    -0.42652    -0.42579    -0.42473    -0.42279    -0.42213
    -0.42121    -0.42063    -0.41935    -0.41778    -0.41714    -0.41616
    -0.41549    -0.41396    -0.41319    -0.41271    -0.41257    -0.41089
    -0.40644    -0.40450    -0.40288    -0.39490    -0.39440    -0.39371
    -0.39197    -0.38896    -0.38604    -0.38465    -0.38306    -0.37985
    -0.37526    -0.37155    -0.37123    -0.36762    -0.36475    -0.36419
    -0.35927    -0.35875    -0.35795    -0.35592    -0.35399    -0.35275
    -0.35060    -0.34702    -0.34576    -0.34468    -0.34162    -0.33996
    -0.33940    -0.33769    -0.33635    -0.33476    -0.33323    -0.33160
    -0.33105    -0.32641    -0.32505    -0.32403    -0.32166    -0.32114
    -0.32018    -0.31621    -0.31084    -0.30603    -0.30366    -0.30080
    -0.29766    -0.29359    -0.29174    -0.28967    -0.28782    -0.28644
    -0.28551    -0.28261    -0.28221    -0.28202    -0.27750    -0.27362
    -0.27225    -0.26736    -0.26405    -0.26005    -0.25891    -0.25337
    -0.25276    -0.25225    -0.24892    -0.24800    -0.24612    -0.24570
    -0.24386    -0.23934    -0.23619    -0.23537    -0.23343    -0.23022
    -0.22882    -0.22539    -0.21899    -0.20057    -0.09265    -0.05191
    -0.04403    -0.03279    -0.03208    -0.01824    -0.01714    -0.01626
    -0.01416    -0.01229
 
  Peak memory usage:    859 Mb
  
  end of program scf
   
 Time(scf)  user:      795.0  user+sys:      804.0  wallclock:     1576.1
  
  start of program sole
  
    SCRF                   solvation energy
  iteration          Hartrees            kcal/mol
     0               0.0000000            0.0000
     1              -0.0161702          -10.1469
     2              -0.0171504          -10.7620
     3              -0.0174173          -10.9295
     4              -0.0173857          -10.9097
  
  stopping: solvation energy converged
  
  iterations:   4    sfinal:    -10.9097 kcal/mol
  
  Peak memory usage:    635 Mb
  
  end of program sole
   
 Time(sole)  user:        0.0  user+sys:        0.0  wallclock:        0.4
  
  start of program post
  
  Writing input files for PBF
  Peak memory usage:    536 Mb
  
  end of program post
   
 Time(post)  user:        0.0  user+sys:        0.0  wallclock:        0.5

 Total cpu seconds     user:   18768.000   user+sys:   18999.000
  
 Total elapsed time:    49767 seconds

Job B3LYP-SPE-Toru-SiPh3-Type-I-Z-1-chkp-unrestrained completed on tethys at Thu Nov 24 03:53:37 2016
