Job Type-I-Z-sulfonyl-bind-1-chkp-unrestrained-SPE started on tethys at Mon Mar  6 14:24:42 2017
jobid: tethys-0-58bd7126

  +--------------------------------------------------------------------+
  |  Jaguar version 9.5, release  11                                   |
  |                                                                    |
  |  Copyright Schrodinger, Inc.                                       |
  |  All Rights Reserved.                                              |
  |                                                                    |
  |  The following have contributed to Jaguar (listed alphabetically): |
  |  Mike Beachy, Art Bochevarov, Dale Braden, Yixiang Cao,            |
  |  Chris Cortis, Rich Friesner, Bill Goddard, Hod Greeley,           |
  |  Tom Hughes, Leif Jacobson, Jean-Marc Langlois,                    |
  |  Daniel Mainz, Rob Murphy, Dean Philipp, Tom Pollard,              |
  |  Murco Ringnalda, Mark Watson, Haoyu Yu.                           |
  |                                                                    |
  |  Use of this program should be acknowledged in publications as:    |
  |                                                                    |
  |  Jaguar, version 9.5, Schrodinger, Inc., New York, NY, 2017.       |
  |                                                                    |
  |  A. D. Bochevarov, E. Harder, T. F. Hughes, J. R. Greenwood,       |
  |  D. A. Braden, D. M. Philipp, D. Rinaldo, M. D. Halls,             |
  |  J. Zhang, R. A. Friesner, "Jaguar: A High-Performance Quantum     |
  |  Chemistry Software Program with Strengths in Life and Materials   |
  |  Sciences", Int. J. Quantum Chem., 2013, 113(18), 2110-2142.       |
  +--------------------------------------------------------------------+
  
  start of program pre
  
  Job name: Type-I-Z-sulfonyl-bind-1-chkp-unrestrained-SPE
  Executables used: /usr/local/shared/schrodinger/current/jaguar-v9.5/bin/Linux-x86_64
  Temporary files : /scratch/ab2144/Type-I-Z-sulfonyl-bind-1-chkp-unrestrained-SPE
  Maestro file (input):  Type-I-Z-sulfonyl-bind-1-chkp-unrestrained-SPE.mae
  Maestro file (output): Type-I-Z-sulfonyl-bind-1-chkp-unrestrained-SPE.01.mae
  
  basis set:             6-31g**                         
  net molecular charge:    0
  multiplicity:            1
  
  keygrid settings 
    wispc.....   7.500E-01
    ldens.....   0
    denspc....   7.500E-01
  
   grid     daf set  nls  grid set  Q type
  ------    -------  ---  --------  ------
  coarse       1      1       1        1
  medium       2      2       2        1
  fine         3      2       3        0
  ultrafine    4      2       4        1
  charge       0      1      -1        1
  gradient     5      2       4        1
  density      0      1       0        0
  DFT-fine     0      1     -13        0
  DFT-med.     0      1     -13        0
  DFT-grad     0      1     -13        0
  DFT-der2     0      1       0        0
  DFT-cphf     0      1       0        0
  LMP2-enrg    4      2       4        1
  LMP2-grad    5      2       2        1
  DFT-cphf2    0      1       0        0
  PBF-dens     0      1       0        0
  plotting     0      1       0        0
  Rel-grad     0      1     -17        0
  
  idftgrdm  100
  ndftgrdm   50    0    0
  idftgrdf  111
  ndftgrdf   85    0    0
  idftgrdg  111
  ndftgrdg   80    3    0
  idftgrdu  433
  ndftgrdu  105    0    0
  idftgrdd  433
  ndftgrdd  105    0    0
  idftgrdc  433
  ndftgrdc   26    0    0
  idftgrdp  433
  ndftgrdp   18    0    0
  
  number of basis functions....         1680
  
 Input geometry:
                                   angstroms
  atom               x                 y                 z
  C1           -2.6633000000      2.5229000000      0.0467000000 
  C2           -5.1073000000      1.5778000000      1.1240000000 
  C3           -4.0826000000      0.6108000000      0.6752000000 
  C4           -2.8820000000      1.0592000000      0.2553000000 
  H5           -6.0430000000      1.2210000000      1.5335000000 
  C6            0.9285000000      4.0959000000     -1.7463000000 
  C7            1.0045000000      3.3504000000     -0.6343000000 
  C8           -0.2242000000      2.6735000000     -0.1307000000 
  C9           -1.4291000000      2.9760000000     -0.6540000000 
  H10           1.8009000000      4.5975000000     -2.1361000000 
  C11          -3.5947000000      3.4006000000      0.4921000000 
  C12          -4.8724000000      2.8939000000      1.0562000000 
  C13          -5.8830000000      3.8687000000      1.5131000000 
  C14          -5.6404000000      5.1810000000      1.4318000000 
  C15          -4.3629000000      5.6968000000      0.8958000000 
  C16          -3.4024000000      4.8738000000      0.4588000000 
  H17          -6.8292000000      3.5272000000      1.9159000000 
  H18          -6.3904000000      5.8842000000      1.7705000000 
  H19          -4.2014000000      6.7668000000      0.8665000000 
  H20          -2.4776000000      5.3071000000      0.1014000000 
  C21          -0.3600000000      4.2727000000     -2.4478000000 
  C22          -1.4945000000      3.7512000000     -1.9276000000 
  C23          -2.7714000000      3.9055000000     -2.6757000000 
  C24          -2.8016000000      4.5860000000     -3.8272000000 
  C25          -1.5656000000      5.1815000000     -4.3699000000 
  C26          -0.4070000000      5.0317000000     -3.7189000000 
  H27          -3.6852000000      3.4589000000     -2.3068000000 
  H28          -3.7323000000      4.6944000000     -4.3690000000 
  H29          -1.5986000000      5.7340000000     -5.3000000000 
  H30           0.4973000000      5.4654000000     -4.1273000000 
  Si31         -4.4563000000     -1.2200000000      0.7391000000 
  Si32          2.6052000000      3.2741000000      0.3412000000 
  C33          -3.9145000000     -3.1936000000     -3.4770000000 
  C34          -4.1969000000     -3.9514000000     -2.4112000000 
  C35          -4.3948000000     -3.3238000000     -1.0882000000 
  C36          -4.2595000000     -1.9950000000     -0.9417000000 
  C37          -3.9926000000     -1.1563000000     -2.1360000000 
  C38          -3.8217000000     -1.7268000000     -3.3350000000 
  H39          -3.7639000000     -3.6519000000     -4.4458000000 
  H40          -4.2727000000     -5.0262000000     -2.5135000000 
  H41          -4.6222000000     -3.9546000000     -0.2376000000 
  H42          -3.9468000000     -0.0794000000     -2.0539000000 
  H43          -3.6239000000     -1.1138000000     -4.2047000000 
  C44          -1.5618000000     -3.1168000000      3.8970000000 
  C45          -2.3793000000     -2.1168000000      4.2454000000 
  C46          -3.2781000000     -1.5115000000      3.2410000000 
  C47          -3.2815000000     -1.9628000000      1.9754000000 
  C48          -2.3377000000     -3.0397000000      1.5851000000 
  C49          -1.5353000000     -3.5957000000      2.5005000000 
  H50          -0.9077000000     -3.5660000000      4.6328000000 
  H51          -2.3918000000     -1.7560000000      5.2656000000 
  H52          -3.9459000000     -0.7154000000      3.5469000000 
  H53          -2.2763000000     -3.3777000000      0.5617000000 
  H54          -0.8498000000     -4.3831000000      2.2151000000 
  C55          -8.9124000000     -2.0095000000      1.9441000000 
  C56          -8.6259000000     -1.3099000000      0.8401000000 
  C57          -7.2183000000     -1.0644000000      0.4640000000 
  C58          -6.2204000000     -1.5291000000      1.2346000000 
  C59          -6.5441000000     -2.3187000000      2.4481000000 
  C60          -7.8207000000     -2.5420000000      2.7843000000 
  H61          -9.9429000000     -2.1907000000      2.2210000000 
  H62          -9.4238000000     -0.9220000000      0.2203000000 
  H63          -7.0064000000     -0.4993000000     -0.4356000000 
  H64          -5.7576000000     -2.7298000000      3.0652000000 
  H65          -8.0564000000     -3.1193000000      3.6690000000 
  C66           5.5078000000      0.0374000000     -1.3963000000 
  C67           5.8534000000      0.7306000000     -0.3053000000 
  C68           4.9346000000      1.7476000000      0.2467000000 
  C69           3.7385000000      1.9621000000     -0.3271000000 
  C70           3.3682000000      1.2008000000     -1.5409000000 
  C71           4.2075000000      0.2897000000     -2.0485000000 
  H72           6.1771000000     -0.7108000000     -1.8005000000 
  H73           6.8045000000      0.5457000000      0.1771000000 
  H74           5.2396000000      2.3123000000      1.1192000000 
  H75           2.4268000000      1.3894000000     -2.0319000000 
  H76           3.9370000000     -0.2626000000     -2.9388000000 
  C77           1.3555000000      2.3268000000      4.7598000000 
  C78           0.9167000000      3.4415000000      4.1636000000 
  C79           1.3308000000      3.7528000000      2.7798000000 
  C80           2.1656000000      2.9306000000      2.1202000000 
  C81           2.6360000000      1.6921000000      2.7833000000 
  C82           2.2538000000      1.4073000000      4.0339000000 
  H83           1.0489000000      2.0938000000      5.7712000000 
  H84           0.2515000000      4.1135000000      4.6900000000 
  H85           0.9339000000      4.6395000000      2.3009000000 
  H86           3.2719000000      1.0011000000      2.2548000000 
  H87           2.5962000000      0.4999000000      4.5135000000 
  C88           5.0762000000      7.2396000000     -0.0939000000 
  C89           4.4900000000      6.9541000000      1.0742000000 
  C90           3.7067000000      5.7100000000      1.2271000000 
  C91           3.5601000000      4.8687000000      0.1884000000 
  C92           4.2358000000      5.1809000000     -1.0958000000 
  C93           4.9485000000      6.3058000000     -1.2297000000 
  H94           5.6512000000      8.1496000000     -0.2061000000 
  H95           4.5892000000      7.6330000000      1.9113000000 
  H96           3.2669000000      5.4999000000      2.1897000000 
  H97           4.1699000000      4.4921000000     -1.9286000000 
  H98           5.4412000000      6.5286000000     -2.1673000000 
  O99          -1.9278000000      0.1565000000     -0.1363000000 
  O100         -0.1422000000      1.8120000000      0.9309000000 
  P101         -0.4588000000      0.2509000000      0.5671000000 
  O102         -0.3631000000     -0.4756000000      1.8714000000 
  N103          3.3142000000     -2.7456000000     -0.7568000000 
  H104          2.6066000000     -2.2856000000     -1.3736000000 
  C105          3.4537000000     -2.2229000000      0.4958000000 
  C106          7.1721000000     -1.9321000000      2.5849000000 
  C107          6.0041000000     -1.3975000000      3.1317000000 
  C108          4.7958000000     -1.5336000000      2.4578000000 
  C109          4.7308000000     -2.2130000000      1.2269000000 
  C110          5.9143000000     -2.7420000000      0.6816000000 
  C111          7.1216000000     -2.5986000000      1.3590000000 
  H112          8.1192000000     -1.8164000000      3.1031000000 
  H113          6.0355000000     -0.8655000000      4.0776000000 
  H114          3.8919000000     -1.1185000000      2.8819000000 
  H115          5.9100000000     -3.2136000000     -0.2929000000 
  H116          8.0299000000     -2.9964000000      0.9173000000 
  H117          2.8588000000     -1.3167000000      0.5868000000 
  N118          0.5760000000     -0.1910000000     -0.6194000000 
  S119          0.2240000000     -1.0955000000     -1.8702000000 
  O120         -0.8603000000     -2.0720000000     -1.6980000000 
  O121          1.4982000000     -1.6021000000     -2.4512000000 
  C122         -0.3766000000      0.0344000000     -3.2457000000 
  F123          0.5709000000      0.9064000000     -3.6032000000 
  F124         -0.6944000000     -0.7147000000     -4.3072000000 
  F125         -1.4600000000      0.7248000000     -2.8684000000 
  C126          1.9549000000     -3.2393000000      1.7460000000 
  C127          2.6369000000     -4.1956000000      2.5508000000 
  C128          2.6203000000     -3.7411000000      3.8613000000 
  C129          1.8672000000     -2.5479000000      3.8686000000 
  N130          1.4601000000     -2.2699000000      2.6248000000 
  H131          1.3958000000     -3.4643000000      0.8467000000 
  H132          3.1175000000     -5.0794000000      2.1598000000 
  H133          3.0873000000     -4.1942000000      4.7240000000 
  H134          1.6121000000     -1.8994000000      4.6962000000 
  H135          0.7836000000     -1.5183000000      2.3464000000 
  S136          3.6866000000     -4.3365000000     -1.2886000000 
  O137          4.6658000000     -4.2538000000     -2.3723000000 
  O138          3.9600000000     -5.1520000000     -0.1048000000 
  C139         -0.3401000000     -5.4011000000     -3.0075000000 
  C140         -0.1447000000     -5.0343000000     -1.6730000000 
  N141          1.0597000000     -4.7389000000     -1.1765000000 
  C142          2.0851000000     -4.7844000000     -2.0177000000 
  C143          2.0225000000     -5.1284000000     -3.3619000000 
  C144          0.7585000000     -5.4536000000     -3.8608000000 
  H145         -1.3397000000     -5.6234000000     -3.3647000000 
  H146         -0.9815000000     -4.9602000000     -0.9863000000 
  H147          2.9137000000     -5.1244000000     -3.9770000000 
  H148          0.6380000000     -5.7275000000     -4.9041000000 
   
  principal moments of inertia:
        amu*angstrom^2:    20613.16621    24762.22533    32072.57749
                g*cm^2: 3.42289635E-36 4.11186374E-36 5.32577613E-36
   
  rotational constants:
               cm^(-1):      0.00081781      0.00068078      0.00052561
                   GHz:      0.02451729      0.02040927      0.01575736
   
  Molecular weight:    1308.28 amu
   
  Stoichiometry: Si2C73PN4H56S2O7F3
[running at reduced cpu priority]
  Molecular Point Group: C1      
  Point Group used: C1
  
  nuclear repulsion energy.......   20908.324230844 hartrees
 
 Non-default options chosen:
   SCF calculation type: DFT(m06-2x)                 
   DFT=M06-2X
   Solvation energy will be computed using PBF
     -solute cavity energy will not be included
     -surface area terms will not be included
   Highest accuracy cutoffs used in SCF
   Solvent: other                                                           
   Internal dielectric constant:    1.000
   Continuum dielectric constant:   2.380
   Solvent probe molecule radius:   2.760
  
 Temporary integer options set:
     73=  2
  
  atom       vdw   vdw2    cov     mass  grid  daf  charge   basis
  C1        1.949  1.900  0.770   12.000    Y    Y      Y    6-31g**
  C2        1.949  1.900  0.770   12.000    Y    Y      Y    6-31g**
  C3        1.949  1.900  0.770   12.000    Y    Y      Y    6-31g**
  C4        1.949  1.900  0.770   12.000    Y    Y      Y    6-31g**
  H5        1.597  1.150  0.320    1.008    Y    Y      Y    6-31g**
  C6        1.949  1.900  0.770   12.000    Y    Y      Y    6-31g**
  C7        1.949  1.900  0.770   12.000    Y    Y      Y    6-31g**
  C8        1.949  1.900  0.770   12.000    Y    Y      Y    6-31g**
  C9        1.949  1.900  0.770   12.000    Y    Y      Y    6-31g**
  H10       1.597  1.150  0.320    1.008    Y    Y      Y    6-31g**
  C11       1.949  1.900  0.770   12.000    Y    Y      Y    6-31g**
  C12       1.949  1.900  0.770   12.000    Y    Y      Y    6-31g**
  C13       1.949  1.900  0.770   12.000    Y    Y      Y    6-31g**
  C14       1.949  1.900  0.770   12.000    Y    Y      Y    6-31g**
  C15       1.949  1.900  0.770   12.000    Y    Y      Y    6-31g**
  C16       1.949  1.900  0.770   12.000    Y    Y      Y    6-31g**
  H17       1.597  1.150  0.320    1.008    Y    Y      Y    6-31g**
  H18       1.597  1.150  0.320    1.008    Y    Y      Y    6-31g**
  H19       1.597  1.150  0.320    1.008    Y    Y      Y    6-31g**
  H20       1.597  1.150  0.320    1.008    Y    Y      Y    6-31g**
  C21       1.949  1.900  0.770   12.000    Y    Y      Y    6-31g**
  C22       1.949  1.900  0.770   12.000    Y    Y      Y    6-31g**
  C23       1.949  1.900  0.770   12.000    Y    Y      Y    6-31g**
  C24       1.949  1.900  0.770   12.000    Y    Y      Y    6-31g**
  C25       1.949  1.900  0.770   12.000    Y    Y      Y    6-31g**
  C26       1.949  1.900  0.770   12.000    Y    Y      Y    6-31g**
  H27       1.597  1.150  0.320    1.008    Y    Y      Y    6-31g**
  H28       1.597  1.150  0.320    1.008    Y    Y      Y    6-31g**
  H29       1.597  1.150  0.320    1.008    Y    Y      Y    6-31g**
  H30       1.597  1.150  0.320    1.008    Y    Y      Y    6-31g**
  Si31      2.217  2.147  1.110   27.977    Y    Y      Y    6-31g**
  Si32      2.217  2.147  1.110   27.977    Y    Y      Y    6-31g**
  C33       1.949  1.900  0.770   12.000    Y    Y      Y    6-31g**
  C34       1.949  1.900  0.770   12.000    Y    Y      Y    6-31g**
  C35       1.949  1.900  0.770   12.000    Y    Y      Y    6-31g**
  C36       1.949  1.900  0.770   12.000    Y    Y      Y    6-31g**
  C37       1.949  1.900  0.770   12.000    Y    Y      Y    6-31g**
  C38       1.949  1.900  0.770   12.000    Y    Y      Y    6-31g**
  H39       1.597  1.150  0.320    1.008    Y    Y      Y    6-31g**
  H40       1.597  1.150  0.320    1.008    Y    Y      Y    6-31g**
  H41       1.597  1.150  0.320    1.008    Y    Y      Y    6-31g**
  H42       1.597  1.150  0.320    1.008    Y    Y      Y    6-31g**
  H43       1.597  1.150  0.320    1.008    Y    Y      Y    6-31g**
  C44       1.949  1.900  0.770   12.000    Y    Y      Y    6-31g**
  C45       1.949  1.900  0.770   12.000    Y    Y      Y    6-31g**
  C46       1.949  1.900  0.770   12.000    Y    Y      Y    6-31g**
  C47       1.949  1.900  0.770   12.000    Y    Y      Y    6-31g**
  C48       1.949  1.900  0.770   12.000    Y    Y      Y    6-31g**
  C49       1.949  1.900  0.770   12.000    Y    Y      Y    6-31g**
  H50       1.597  1.150  0.320    1.008    Y    Y      Y    6-31g**
  H51       1.597  1.150  0.320    1.008    Y    Y      Y    6-31g**
  H52       1.597  1.150  0.320    1.008    Y    Y      Y    6-31g**
  H53       1.597  1.150  0.320    1.008    Y    Y      Y    6-31g**
  H54       1.597  1.150  0.320    1.008    Y    Y      Y    6-31g**
  C55       1.949  1.900  0.770   12.000    Y    Y      Y    6-31g**
  C56       1.949  1.900  0.770   12.000    Y    Y      Y    6-31g**
  C57       1.949  1.900  0.770   12.000    Y    Y      Y    6-31g**
  C58       1.949  1.900  0.770   12.000    Y    Y      Y    6-31g**
  C59       1.949  1.900  0.770   12.000    Y    Y      Y    6-31g**
  C60       1.949  1.900  0.770   12.000    Y    Y      Y    6-31g**
  H61       1.597  1.150  0.320    1.008    Y    Y      Y    6-31g**
  H62       1.597  1.150  0.320    1.008    Y    Y      Y    6-31g**
  H63       1.597  1.150  0.320    1.008    Y    Y      Y    6-31g**
  H64       1.597  1.150  0.320    1.008    Y    Y      Y    6-31g**
  H65       1.597  1.150  0.320    1.008    Y    Y      Y    6-31g**
  C66       1.949  1.900  0.770   12.000    Y    Y      Y    6-31g**
  C67       1.949  1.900  0.770   12.000    Y    Y      Y    6-31g**
  C68       1.949  1.900  0.770   12.000    Y    Y      Y    6-31g**
  C69       1.949  1.900  0.770   12.000    Y    Y      Y    6-31g**
  C70       1.949  1.900  0.770   12.000    Y    Y      Y    6-31g**
  C71       1.949  1.900  0.770   12.000    Y    Y      Y    6-31g**
  H72       1.597  1.150  0.320    1.008    Y    Y      Y    6-31g**
  H73       1.597  1.150  0.320    1.008    Y    Y      Y    6-31g**
  H74       1.597  1.150  0.320    1.008    Y    Y      Y    6-31g**
  H75       1.597  1.150  0.320    1.008    Y    Y      Y    6-31g**
  H76       1.597  1.150  0.320    1.008    Y    Y      Y    6-31g**
  C77       1.949  1.900  0.770   12.000    Y    Y      Y    6-31g**
  C78       1.949  1.900  0.770   12.000    Y    Y      Y    6-31g**
  C79       1.949  1.900  0.770   12.000    Y    Y      Y    6-31g**
  C80       1.949  1.900  0.770   12.000    Y    Y      Y    6-31g**
  C81       1.949  1.900  0.770   12.000    Y    Y      Y    6-31g**
  C82       1.949  1.900  0.770   12.000    Y    Y      Y    6-31g**
  H83       1.597  1.150  0.320    1.008    Y    Y      Y    6-31g**
  H84       1.597  1.150  0.320    1.008    Y    Y      Y    6-31g**
  H85       1.597  1.150  0.320    1.008    Y    Y      Y    6-31g**
  H86       1.597  1.150  0.320    1.008    Y    Y      Y    6-31g**
  H87       1.597  1.150  0.320    1.008    Y    Y      Y    6-31g**
  C88       1.949  1.900  0.770   12.000    Y    Y      Y    6-31g**
  C89       1.949  1.900  0.770   12.000    Y    Y      Y    6-31g**
  C90       1.949  1.900  0.770   12.000    Y    Y      Y    6-31g**
  C91       1.949  1.900  0.770   12.000    Y    Y      Y    6-31g**
  C92       1.949  1.900  0.770   12.000    Y    Y      Y    6-31g**
  C93       1.949  1.900  0.770   12.000    Y    Y      Y    6-31g**
  H94       1.597  1.150  0.320    1.008    Y    Y      Y    6-31g**
  H95       1.597  1.150  0.320    1.008    Y    Y      Y    6-31g**
  H96       1.597  1.150  0.320    1.008    Y    Y      Y    6-31g**
  H97       1.597  1.150  0.320    1.008    Y    Y      Y    6-31g**
  H98       1.597  1.150  0.320    1.008    Y    Y      Y    6-31g**
  O99       1.702  1.600  0.730   15.995    Y    Y      Y    6-31g**
  O100      1.702  1.600  0.730   15.995    Y    Y      Y    6-31g**
  P101      2.147  2.074  1.060   30.974    Y    Y      Y    6-31g**
  O102      1.702  1.600  0.730   15.995    Y    Y      Y    6-31g**
  N103      1.831  1.600  0.750   14.003    Y    Y      Y    6-31g**
  H104      1.597  1.150  0.320    1.008    Y    Y      Y    6-31g**
  C105      1.949  1.900  0.770   12.000    Y    Y      Y    6-31g**
  C106      1.949  1.900  0.770   12.000    Y    Y      Y    6-31g**
  C107      1.949  1.900  0.770   12.000    Y    Y      Y    6-31g**
  C108      1.949  1.900  0.770   12.000    Y    Y      Y    6-31g**
  C109      1.949  1.900  0.770   12.000    Y    Y      Y    6-31g**
  C110      1.949  1.900  0.770   12.000    Y    Y      Y    6-31g**
  C111      1.949  1.900  0.770   12.000    Y    Y      Y    6-31g**
  H112      1.597  1.150  0.320    1.008    Y    Y      Y    6-31g**
  H113      1.597  1.150  0.320    1.008    Y    Y      Y    6-31g**
  H114      1.597  1.150  0.320    1.008    Y    Y      Y    6-31g**
  H115      1.597  1.150  0.320    1.008    Y    Y      Y    6-31g**
  H116      1.597  1.150  0.320    1.008    Y    Y      Y    6-31g**
  H117      1.597  1.150  0.320    1.008    Y    Y      Y    6-31g**
  N118      1.831  1.600  0.750   14.003    Y    Y      Y    6-31g**
  S119      2.070  1.900  1.020   31.972    Y    Y      Y    6-31g**
  O120      1.702  1.600  0.730   15.995    Y    Y      Y    6-31g**
  O121      1.702  1.600  0.730   15.995    Y    Y      Y    6-31g**
  C122      1.949  1.900  0.770   12.000    Y    Y      Y    6-31g**
  F123      1.736  1.682  0.720   18.998    Y    Y      Y    6-31g**
  F124      1.736  1.682  0.720   18.998    Y    Y      Y    6-31g**
  F125      1.736  1.682  0.720   18.998    Y    Y      Y    6-31g**
  C126      1.949  1.900  0.770   12.000    Y    Y      Y    6-31g**
  C127      1.949  1.900  0.770   12.000    Y    Y      Y    6-31g**
  C128      1.949  1.900  0.770   12.000    Y    Y      Y    6-31g**
  C129      1.949  1.900  0.770   12.000    Y    Y      Y    6-31g**
  N130      1.831  1.600  0.750   14.003    Y    Y      Y    6-31g**
  H131      1.597  1.150  0.320    1.008    Y    Y      Y    6-31g**
  H132      1.597  1.150  0.320    1.008    Y    Y      Y    6-31g**
  H133      1.597  1.150  0.320    1.008    Y    Y      Y    6-31g**
  H134      1.597  1.150  0.320    1.008    Y    Y      Y    6-31g**
  H135      1.597  1.150  0.320    1.008    Y    Y      Y    6-31g**
  S136      2.070  1.900  1.020   31.972    Y    Y      Y    6-31g**
  O137      1.702  1.600  0.730   15.995    Y    Y      Y    6-31g**
  O138      1.702  1.600  0.730   15.995    Y    Y      Y    6-31g**
  C139      1.949  1.900  0.770   12.000    Y    Y      Y    6-31g**
  C140      1.949  1.900  0.770   12.000    Y    Y      Y    6-31g**
  N141      1.831  1.600  0.750   14.003    Y    Y      Y    6-31g**
  C142      1.949  1.900  0.770   12.000    Y    Y      Y    6-31g**
  C143      1.949  1.900  0.770   12.000    Y    Y      Y    6-31g**
  C144      1.949  1.900  0.770   12.000    Y    Y      Y    6-31g**
  H145      1.597  1.150  0.320    1.008    Y    Y      Y    6-31g**
  H146      1.597  1.150  0.320    1.008    Y    Y      Y    6-31g**
  H147      1.597  1.150  0.320    1.008    Y    Y      Y    6-31g**
  H148      1.597  1.150  0.320    1.008    Y    Y      Y    6-31g**
  
  Peak memory usage:    768 Mb
  
  end of program pre
   
 Time(pre)  user:        0.9  user+sys:        0.9  wallclock:        2.3
  
  start of program onee
  
  smallest eigenvalue of S:    2.205E-04
  number of canonical orbitals.....         1673
  Peak memory usage:    900 Mb
  
  end of program onee
   
 Time(onee)  user:       17.2  user+sys:       17.2  wallclock:       20.1
  
  start of program hfig
  
  initial wavefunction generated automatically from atomic wavefunctions
 
  Irreducible     Total no   No of occupied orbitals 
  representation  orbitals   Shell_1  Shell_2    ...
  No Symm         1673        340
  ------------------------
  Orbital occupation/shell    1.000
 
  Peak memory usage:    833 Mb
  
  end of program hfig
   
 Time(hfig)  user:       28.7  user+sys:       28.7  wallclock:       30.6
  
  start of program probe
  
  Peak memory usage:    826 Mb
  
  end of program probe
   
 Time(probe)  user:       20.0  user+sys:       20.0  wallclock:       20.6
  
  start of program grid
  
   grid     grid set  grid #  grid sym
  ------    --------  ------  --------
  coarse        0        0        1
  medium        2        1        1
  fine          0        0        1
  ultrafine     4        2        1
  charge       -1        3        1
  gradient      4        2        1
  density       0        0        1
  DFT-fine    -13        4        1
  DFT-med.    -13        4        1
  DFT-grad    -13        4        1
  DFT-der2      0        0        1
  DFT-cphf      0        0        1
  LMP2-enrg     4        2        1
  LMP2-grad     2        1        1
  DFT-cphf2     0        0        1
  PBF-dens      0        0        1
  plotting      0        0        1
  Rel-grad    -17        0        1
  
  number of gridpoints: 
     atom        C1       C2       C3       C4       H5       C6       C7
  grid # 1      100       94      101       97      110       93      100
  grid # 2      358      337      359      359      426      335      358
  grid # 3       13       30       14       20      175       23       12
  grid # 4    48124    48124    48124    48124    48426    48124    48124
   
  number of gridpoints: 
     atom        C8       C9      H10      C11      C12      C13      C14
  grid # 1       97      100      111      102      102       98       94
  grid # 2      358      354      421      358      366      339      338
  grid # 3       14        6      162       29       48       48       48
  grid # 4    48124    48124    48426    48124    48124    48124    48124
   
  number of gridpoints: 
     atom       C15      C16      H17      H18      H19      H20      C21
  grid # 1       95       97      118      118      118      111      101
  grid # 2      338      338      442      450      449      434      365
  grid # 3       40       31      361      417      409      238       31
  grid # 4    48124    48124    48426    48426    48426    48426    48124
   
  number of gridpoints: 
     atom       C22      C23      C24      C25      C26      H27      H28
  grid # 1      100       96       94       94       95      111      118
  grid # 2      357      336      336      335      336      434      451
  grid # 3        7       22       35       43       37      233      416
  grid # 4    48124    48124    48124    48124    48124    48426    48426
   
  number of gridpoints: 
     atom       H29      H30     Si31     Si32      C33      C34      C35
  grid # 1      118      118      470      475       93       93       92
  grid # 2      453      445      470      475      335      333      335
  grid # 3      423      355        6       10       32       33       21
  grid # 4    48426    48426    38542    38542    48124    48124    48124
   
  number of gridpoints: 
     atom       C36      C37      C38      H39      H40      H41      H42
  grid # 1      101       96       93      116      115      113      109
  grid # 2      358      334      334      449      447      434      424
  grid # 3       11       18       27      363      342      257      154
  grid # 4    48124    48124    48124    48426    48426    48426    48426
   
  number of gridpoints: 
     atom       H43      C44      C45      C46      C47      C48      C49
  grid # 1      114       94       92       92      100       96       94
  grid # 2      443      331      334      332      355      334      331
  grid # 3      308       27       22        9        9       19       27
  grid # 4    48426    48124    48124    48124    48124    48124    48124
   
  number of gridpoints: 
     atom       H50      H51      H52      H53      H54      C55      C56
  grid # 1      115      118      112      107      114       94       93
  grid # 2      441      450      438      412      432      336      335
  grid # 3      301      387      261       97      253       46       39
  grid # 4    48426    48426    48426    48426    48426    48124    48124
   
  number of gridpoints: 
     atom       C57      C58      C59      C60      H61      H62      H63
  grid # 1       92      100       96       94      118      118      112
  grid # 2      335      358      339      336      453      452      438
  grid # 3       21       13       31       45      424      414      263
  grid # 4    48124    48124    48124    48124    48426    48426    48426
   
  number of gridpoints: 
     atom       H64      H65      C66      C67      C68      C69      C70
  grid # 1      111      118       93       93       92      101       94
  grid # 2      433      453      333      333      335      359      334
  grid # 3      233      423       26       24       17        8       13
  grid # 4    48426    48426    48124    48124    48124    48124    48124
   
  number of gridpoints: 
     atom       C71      H72      H73      H74      H75      H76      C77
  grid # 1       93      113      116      112      107      115       93
  grid # 2      331      443      441      437      412      437      335
  grid # 3       20      301      308      256       98      278       38
  grid # 4    48124    48426    48426    48426    48426    48426    48124
   
  number of gridpoints: 
     atom       C78      C79      C80      C81      C82      H83      H84
  grid # 1       93       92      101       95       93      118      118
  grid # 2      335      333      357      333      335      451      452
  grid # 3       32       11       13       23       33      398      404
  grid # 4    48124    48124    48124    48124    48124    48426    48426
   
  number of gridpoints: 
     atom       H85      H86      H87      C88      C89      C90      C91
  grid # 1      112      106      111       94       94       93      100
  grid # 2      429      413      432      336      336      338      363
  grid # 3      226       84      198       49       47       34       18
  grid # 4    48426    48426    48426    48124    48124    48124    48124
   
  number of gridpoints: 
     atom       C92      C93      H94      H95      H96      H97      H98
  grid # 1       95       94      118      118      110      112      118
  grid # 2      336      336      453      452      431      427      452
  grid # 3       26       42      424      419      229      217      420
  grid # 4    48124    48124    48426    48426    48426    48426    48426
   
  number of gridpoints: 
     atom       O99     O100     P101     O102     N103     H104     C105
  grid # 1      112      112      447      116      100       98       93
  grid # 2      429      439      447      459      349      393      326
  grid # 3       20       57        7       75       10       47        6
  grid # 4    47716    47716    38640    47716    47928    48426    48124
   
  number of gridpoints: 
     atom      C106     C107     C108     C109     C110     C111     H112
  grid # 1       96       95       95      100       95       96      117
  grid # 2      330      330      333      359      333      331      450
  grid # 3       32       28       20       13       20       28      410
  grid # 4    48124    48124    48124    48124    48124    48124    48426
   
  number of gridpoints: 
     atom      H113     H114     H115     H116     H117     N118     S119
  grid # 1      117      105      110      117      101      109      433
  grid # 2      445      402      422      450      409      406      433
  grid # 3      362       58      147      400       72       21        9
  grid # 4    48426    48426    48426    48426    48426    47928    48492
   
  number of gridpoints: 
     atom      O120     O121     C122     F123     F124     F125     C126
  grid # 1      117      116       91      519      529      509       92
  grid # 2      475      455      323      519      529      509      325
  grid # 3       66       77        7      158      225       66        6
  grid # 4    47716    47716    48124    47062    47062    47062    48124
   
  number of gridpoints: 
     atom      C127     C128     C129     N130     H131     H132     H133
  grid # 1       93       93       95       96      106      113      117
  grid # 2      328      329      324      341      410      442      459
  grid # 3       13       16        7        7       82      299      437
  grid # 4    48124    48124    48124    47928    48426    48426    48426
   
  number of gridpoints: 
     atom      H134     H135     S136     O137     O138     C139     C140
  grid # 1      112       99      447      122      118       96       96
  grid # 2      436      400      447      493      485      332      334
  grid # 3      245       83       12      223      192       37       30
  grid # 4    48426    48426    48492    47716    47716    48124    48124
   
  number of gridpoints: 
     atom      N141     C142     C143     C144     H145     H146     H147
  grid # 1      110       98       96       96      113      111      114
  grid # 2      407      357      329      332      437      428      444
  grid # 3       58       27       37       41      285      216      337
  grid # 4    47928    48124    48124    48124    48426    48426    48426
   
  number of gridpoints: 
     atom      H148    total
  grid # 1      118    18364
  grid # 2      453    57811
  grid # 3      425    18976
  grid # 4    48426  7104526
   
  Peak memory usage:    795 Mb
  
  end of program grid
   
 Time(grid)  user:     1133.7  user+sys:     1133.7  wallclock:     1162.9
  
  start of program rwr
  
  Peak memory usage:    814 Mb
  
  end of program rwr
   
 Time(rwr)  user:       67.3  user+sys:       67.3  wallclock:       75.0
  
  start of program scf
  
 number of electrons..........        680
 number of alpha electrons....        340
 number of beta electrons.....        340
 number of orbitals, total....       1673
 number of doubly-occ'd orbs..        340
 number of open shell orbs....          0
 number of occupied orbitals..        340
 number of virtual orbitals...       1333
 number of hamiltonians.......          1
 number of shells.............          1
 SCF type: DFT=M06-2X
 Energy computed with NOPS off.
  
       i  u  d  i  g                   
       t  p  i  c  r                                 RMS    maximum
       e  d  i  u  i                       energy  density   DIIS  
       r  t  s  t  d       total energy    change  change    error 
  
etot    1  N  N  1  U   -5562.77611367150           3.5E-03  1.0E-01
