Job Toru-SiPh3-Type-I-E-9-chkp-2-scan-TS.mol-SPE started on tethys at Fri Feb 17 16:42:57 2017
jobid: tethys-0-58a7280c

  +--------------------------------------------------------------------+
  |  Jaguar version 9.5, release  11                                   |
  |                                                                    |
  |  Copyright Schrodinger, Inc.                                       |
  |  All Rights Reserved.                                              |
  |                                                                    |
  |  The following have contributed to Jaguar (listed alphabetically): |
  |  Mike Beachy, Art Bochevarov, Dale Braden, Yixiang Cao,            |
  |  Chris Cortis, Rich Friesner, Bill Goddard, Hod Greeley,           |
  |  Tom Hughes, Leif Jacobson, Jean-Marc Langlois,                    |
  |  Daniel Mainz, Rob Murphy, Dean Philipp, Tom Pollard,              |
  |  Murco Ringnalda, Mark Watson, Haoyu Yu.                           |
  |                                                                    |
  |  Use of this program should be acknowledged in publications as:    |
  |                                                                    |
  |  Jaguar, version 9.5, Schrodinger, Inc., New York, NY, 2017.       |
  |                                                                    |
  |  A. D. Bochevarov, E. Harder, T. F. Hughes, J. R. Greenwood,       |
  |  D. A. Braden, D. M. Philipp, D. Rinaldo, M. D. Halls,             |
  |  J. Zhang, R. A. Friesner, "Jaguar: A High-Performance Quantum     |
  |  Chemistry Software Program with Strengths in Life and Materials   |
  |  Sciences", Int. J. Quantum Chem., 2013, 113(18), 2110-2142.       |
  +--------------------------------------------------------------------+
  
  start of program pre
  
  Job name: Toru-SiPh3-Type-I-E-9-chkp-2-scan-TS.mol-SPE
  Executables used: /usr/local/shared/schrodinger/current/jaguar-v9.5/bin/Linux-x86_64
  Temporary files : /scratch/ab2144/Toru-SiPh3-Type-I-E-9-chkp-2-scan-TS.mol-SPE
  Maestro file (input):  Toru-SiPh3-Type-I-E-9-chkp-2-scan-TS.mol-SPE.mae
  Maestro file (output): Toru-SiPh3-Type-I-E-9-chkp-2-scan-TS.mol-SPE.01.mae
  
  basis set:             6-31g**                         
  net molecular charge:    0
  multiplicity:            1
  
  keygrid settings 
    wispc.....   7.500E-01
    ldens.....   0
    denspc....   7.500E-01
  
   grid     daf set  nls  grid set  Q type
  ------    -------  ---  --------  ------
  coarse       1      1       1        1
  medium       2      2       2        1
  fine         3      2       3        0
  ultrafine    4      2       4        1
  charge       0      1      -1        1
  gradient     5      2       4        1
  density      0      1       0        0
  DFT-fine     0      1     -13        0
  DFT-med.     0      1     -13        0
  DFT-grad     0      1     -13        0
  DFT-der2     0      1       0        0
  DFT-cphf     0      1       0        0
  LMP2-enrg    4      2       4        1
  LMP2-grad    5      2       2        1
  DFT-cphf2    0      1       0        0
  PBF-dens     0      1       0        0
  plotting     0      1       0        0
  Rel-grad     0      1     -17        0
  
  idftgrdm  100
  ndftgrdm   50    0    0
  idftgrdf  111
  ndftgrdf   85    0    0
  idftgrdg  111
  ndftgrdg   80    3    0
  idftgrdu  433
  ndftgrdu  105    0    0
  idftgrdd  433
  ndftgrdd  105    0    0
  idftgrdc  433
  ndftgrdc   26    0    0
  idftgrdp  433
  ndftgrdp   18    0    0
  
  number of basis functions....         1571
  
 Input geometry:
                                   angstroms
  atom               x                 y                 z
  C1           -1.0100000000     -5.0912000000     -1.9104000000 
  C2           -1.7748000000     -3.8658000000     -1.5544000000 
  C3           -1.5873000000     -6.0626000000     -2.6272000000 
  C4           -3.0458000000     -3.7328000000     -1.9909000000 
  C5           -1.1530000000     -2.7653000000     -0.7627000000 
  C6           -3.6785000000     -4.8171000000     -2.7772000000 
  C7           -3.8208000000     -2.5269000000     -1.6423000000 
  C8           -2.9858000000     -5.9216000000     -3.0767000000 
  C9           -1.7822000000     -1.5739000000     -0.6698000000 
  C10           0.1211000000     -2.9799000000     -0.0339000000 
  C11          -3.2390000000     -1.5047000000     -0.9952000000 
  O12          -1.1645000000     -0.5106000000     -0.0520000000 
  Si13         -4.3024000000     -0.1496000000     -0.2662000000 
  C14           0.2472000000     -3.9112000000      0.9394000000 
  C15           1.2854000000     -2.1335000000     -0.3956000000 
  C16           1.5822000000     -4.1725000000      1.5323000000 
  C17          -0.8994000000     -4.6960000000      1.4648000000 
  C18           2.6529000000     -3.4858000000      1.1142000000 
  C19           1.7059000000     -5.2179000000      2.5677000000 
  C20           2.5115000000     -2.4169000000      0.0997000000 
  Si21          4.0257000000     -1.4428000000     -0.4100000000 
  O22           1.1089000000     -1.1394000000     -1.3228000000 
  C23          -0.7131000000     -5.6199000000      2.4148000000 
  C24           0.6270000000     -5.8942000000      2.9761000000 
  P25           0.1763000000      0.1211000000     -0.8260000000 
  O26          -0.1846000000      0.8592000000     -2.0886000000 
  O27           0.8835000000      0.8888000000      0.2716000000 
  C28          -3.9839000000      1.4561000000     -1.1534000000 
  C29          -6.1092000000     -0.5110000000     -0.5163000000 
  C30          -3.9507000000     -0.1391000000      1.5704000000 
  C31           4.2009000000      0.0654000000      0.6625000000 
  C32           5.5967000000     -2.4135000000     -0.1590000000 
  C33           3.8125000000     -0.9980000000     -2.2062000000 
  C34          -4.6468000000      2.5754000000     -0.8143000000 
  C35          -3.1310000000      1.4642000000     -2.3656000000 
  C36          -6.6477000000     -0.4267000000     -1.7447000000 
  C37          -6.9719000000     -0.8738000000      0.6348000000 
  C38          -4.1888000000      0.9411000000      2.3332000000 
  C39          -3.4939000000     -1.3940000000      2.2230000000 
  C40           3.3687000000      0.2878000000      1.6940000000 
  C41           5.3331000000      0.9925000000      0.4282000000 
  C42           6.0486000000     -2.6430000000      1.0865000000 
  C43           6.4027000000     -2.8753000000     -1.3171000000 
  C44           3.6111000000     -1.9641000000     -3.1187000000 
  C45           3.7436000000      0.4206000000     -2.6259000000 
  C46          -4.4469000000      3.8232000000     -1.5806000000 
  C47          -3.6515000000      3.8293000000     -2.6557000000 
  C48          -2.9762000000      2.5870000000     -3.0776000000 
  C49          -8.0850000000     -0.7019000000     -1.9478000000 
  C50          -8.8581000000     -1.0315000000     -0.9066000000 
  C51          -8.2743000000     -1.1211000000      0.4472000000 
  C52          -3.9402000000      0.8989000000      3.7895000000 
  C53          -3.5108000000     -0.2292000000      4.3651000000 
  C54          -3.2855000000     -1.4343000000      3.5442000000 
  C55           3.5406000000      1.4847000000      2.5429000000 
  C56           4.5504000000      2.3312000000      2.3122000000 
  C57           5.4986000000      2.0654000000      1.2117000000 
  C58           7.3068000000     -3.3871000000      1.3003000000 
  C59           8.0164000000     -3.8190000000      0.2520000000 
  C60           7.5454000000     -3.5448000000     -1.1198000000 
  C61           3.3628000000     -1.6135000000     -4.5327000000 
  C62           3.3118000000     -0.3293000000     -4.9059000000 
  C63           3.5049000000      0.7377000000     -3.9038000000 
  C64           3.6352000000      6.4200000000     -0.7906000000 
  C65           2.3972000000      6.0807000000     -0.2550000000 
  C66           2.0117000000      4.7354000000     -0.1328000000 
  C67           2.8812000000      3.7285000000     -0.5801000000 
  C68           4.1171000000      4.0759000000     -1.1263000000 
  C69           4.4983000000      5.4141000000     -1.2287000000 
  C70           0.7082000000      4.4492000000      0.5001000000 
  N71           0.5409000000      3.2921000000      1.2110000000 
  S72          -0.8514000000      3.1898000000      2.2103000000 
  O73          -0.9943000000      4.4801000000      2.8835000000 
  O74          -1.9540000000      2.6603000000      1.3964000000 
  C75          -0.3151000000      1.8902000000      3.3603000000 
  C76          -0.4667000000      0.5591000000      2.9774000000 
  C77          -0.0057000000     -0.3991000000      3.8803000000 
  C78           0.5473000000      0.0174000000      5.0893000000 
  C79           0.6293000000      1.3864000000      5.3564000000 
  N80           0.2117000000      2.3225000000      4.4973000000 
  N81          -0.0954000000      3.4893000000     -2.0026000000 
  C82           0.3830000000      4.1835000000     -3.0321000000 
  C83           0.0897000000      5.5585000000     -2.8620000000 
  C84          -0.6040000000      5.6665000000     -1.6712000000 
  C85          -0.6545000000      4.3701000000     -1.0675000000 
  H86           0.0212000000     -5.2064000000     -1.6029000000 
  H87          -1.0277000000     -6.9525000000     -2.8850000000 
  H88          -4.7035000000     -4.7192000000     -3.1127000000 
  H89          -4.8782000000     -2.5163000000     -1.8645000000 
  H90          -3.4478000000     -6.7130000000     -3.6527000000 
  H91          -1.9051000000     -4.5214000000      1.1061000000 
  H92           3.6210000000     -3.7038000000      1.5392000000 
  H93           2.6714000000     -5.4428000000      3.0051000000 
  H94          -1.5620000000     -6.1779000000      2.7886000000 
  H95           0.7318000000     -6.6561000000      3.7379000000 
  H96           0.7676000000      2.3362000000      0.7801000000 
  H97          -5.3683000000      2.5764000000     -0.0106000000 
  H98          -2.6596000000      0.5537000000     -2.7082000000 
  H99          -6.0389000000     -0.1591000000     -2.5997000000 
  H100         -6.5587000000     -0.9472000000      1.6318000000 
  H101         -4.5562000000      1.8594000000      1.9085000000 
  H102         -3.3398000000     -2.2924000000      1.6407000000 
  H103          2.5608000000     -0.3953000000      1.9199000000 
  H104          6.0304000000      0.8059000000     -0.3790000000 
  H105          5.5053000000     -2.2804000000      1.9503000000 
  H106          6.0875000000     -2.6694000000     -2.3290000000 
  H107          3.6122000000     -3.0079000000     -2.8293000000 
  H108          3.8616000000      1.2067000000     -1.9008000000 
  H109         -4.9553000000      4.7288000000     -1.2764000000 
  H110         -3.5066000000      4.7406000000     -3.2213000000 
  H111         -2.3585000000      2.5860000000     -3.9663000000 
  H112         -8.5103000000     -0.6352000000     -2.9408000000 
  H113         -9.9113000000     -1.2331000000     -1.0535000000 
  H114         -8.9029000000     -1.3881000000      1.2869000000 
  H115         -4.1061000000      1.7847000000      4.3888000000 
  H116         -3.3259000000     -0.2604000000      5.4310000000 
  H117         -2.9508000000     -2.3504000000      4.0136000000 
  H118          2.8484000000      1.6738000000      3.3518000000 
  H119          4.6766000000      3.2091000000      2.9323000000 
  H120          6.3218000000      2.7453000000      1.0350000000 
  H121          7.6536000000     -3.5792000000      2.3074000000 
  H122          8.9395000000     -4.3626000000      0.4065000000 
  H123          8.1316000000     -3.8796000000     -1.9659000000 
  H124          3.2142000000     -2.3979000000     -5.2634000000 
  H125          3.1237000000     -0.0701000000     -5.9397000000 
  H126          3.4448000000      1.7762000000     -4.2034000000 
  H127          3.9264000000      7.4634000000     -0.8631000000 
  H128          1.7238000000      6.8616000000      0.0873000000 
  H129          2.5949000000      2.6855000000     -0.4825000000 
  H130          4.7976000000      3.3033000000     -1.4673000000 
  H131          5.4666000000      5.6714000000     -1.6478000000 
  H132          0.2484000000      5.3061000000      0.9868000000 
  H133         -0.9038000000      0.2895000000      2.0248000000 
  H134         -0.0837000000     -1.4544000000      3.6368000000 
  H135          0.9117000000     -0.7002000000      5.8172000000 
  H136          1.0519000000      1.7481000000      6.2906000000 
  H137         -0.1110000000      2.4219000000     -1.9599000000 
  H138          0.9039000000      3.6875000000     -3.8403000000 
  H139          0.3711000000      6.3508000000     -3.5406000000 
  H140         -0.9924000000      6.5700000000     -1.2204000000 
  H141         -1.4604000000      3.9948000000     -0.4470000000 
   
  principal moments of inertia:
        amu*angstrom^2:    17158.38764    21957.71744    27442.48195
                g*cm^2: 2.84921695E-36 3.64616431E-36 4.55693077E-36
   
  rotational constants:
               cm^(-1):      0.00098247      0.00076773      0.00061429
                   GHz:      0.02945376      0.02301601      0.01841594
   
  Molecular weight:    1177.32 amu
   
  Stoichiometry: Si2C72PN3H56SO6
[running at reduced cpu priority]
  Molecular Point Group: C1      
  Point Group used: C1
  
  nuclear repulsion energy.......   17523.585459011 hartrees
 
 Non-default options chosen:
   SCF calculation type: DFT(m06-2x)                 
   DFT=M06-2X
   Solvation energy will be computed using PBF
     -solute cavity energy will not be included
     -surface area terms will not be included
   Highest accuracy cutoffs used in SCF
   Solvent: other                                                           
   Internal dielectric constant:    1.000
   Continuum dielectric constant:   2.380
   Solvent probe molecule radius:   2.760
  
 Temporary integer options set:
     73=  2
  
  atom       vdw   vdw2    cov     mass  grid  daf  charge   basis
  C1        1.949  1.900  0.770   12.000    Y    Y      Y    6-31g**
  C2        1.949  1.900  0.770   12.000    Y    Y      Y    6-31g**
  C3        1.949  1.900  0.770   12.000    Y    Y      Y    6-31g**
  C4        1.949  1.900  0.770   12.000    Y    Y      Y    6-31g**
  C5        1.949  1.900  0.770   12.000    Y    Y      Y    6-31g**
  C6        1.949  1.900  0.770   12.000    Y    Y      Y    6-31g**
  C7        1.949  1.900  0.770   12.000    Y    Y      Y    6-31g**
  C8        1.949  1.900  0.770   12.000    Y    Y      Y    6-31g**
  C9        1.949  1.900  0.770   12.000    Y    Y      Y    6-31g**
  C10       1.949  1.900  0.770   12.000    Y    Y      Y    6-31g**
  C11       1.949  1.900  0.770   12.000    Y    Y      Y    6-31g**
  O12       1.702  1.600  0.730   15.995    Y    Y      Y    6-31g**
  Si13      2.217  2.147  1.110   27.977    Y    Y      Y    6-31g**
  C14       1.949  1.900  0.770   12.000    Y    Y      Y    6-31g**
  C15       1.949  1.900  0.770   12.000    Y    Y      Y    6-31g**
  C16       1.949  1.900  0.770   12.000    Y    Y      Y    6-31g**
  C17       1.949  1.900  0.770   12.000    Y    Y      Y    6-31g**
  C18       1.949  1.900  0.770   12.000    Y    Y      Y    6-31g**
  C19       1.949  1.900  0.770   12.000    Y    Y      Y    6-31g**
  C20       1.949  1.900  0.770   12.000    Y    Y      Y    6-31g**
  Si21      2.217  2.147  1.110   27.977    Y    Y      Y    6-31g**
  O22       1.702  1.600  0.730   15.995    Y    Y      Y    6-31g**
  C23       1.949  1.900  0.770   12.000    Y    Y      Y    6-31g**
  C24       1.949  1.900  0.770   12.000    Y    Y      Y    6-31g**
  P25       2.147  2.074  1.060   30.974    Y    Y      Y    6-31g**
  O26       1.702  1.600  0.730   15.995    Y    Y      Y    6-31g**
  O27       1.702  1.600  0.730   15.995    Y    Y      Y    6-31g**
  C28       1.949  1.900  0.770   12.000    Y    Y      Y    6-31g**
  C29       1.949  1.900  0.770   12.000    Y    Y      Y    6-31g**
  C30       1.949  1.900  0.770   12.000    Y    Y      Y    6-31g**
  C31       1.949  1.900  0.770   12.000    Y    Y      Y    6-31g**
  C32       1.949  1.900  0.770   12.000    Y    Y      Y    6-31g**
  C33       1.949  1.900  0.770   12.000    Y    Y      Y    6-31g**
  C34       1.949  1.900  0.770   12.000    Y    Y      Y    6-31g**
  C35       1.949  1.900  0.770   12.000    Y    Y      Y    6-31g**
  C36       1.949  1.900  0.770   12.000    Y    Y      Y    6-31g**
  C37       1.949  1.900  0.770   12.000    Y    Y      Y    6-31g**
  C38       1.949  1.900  0.770   12.000    Y    Y      Y    6-31g**
  C39       1.949  1.900  0.770   12.000    Y    Y      Y    6-31g**
  C40       1.949  1.900  0.770   12.000    Y    Y      Y    6-31g**
  C41       1.949  1.900  0.770   12.000    Y    Y      Y    6-31g**
  C42       1.949  1.900  0.770   12.000    Y    Y      Y    6-31g**
  C43       1.949  1.900  0.770   12.000    Y    Y      Y    6-31g**
  C44       1.949  1.900  0.770   12.000    Y    Y      Y    6-31g**
  C45       1.949  1.900  0.770   12.000    Y    Y      Y    6-31g**
  C46       1.949  1.900  0.770   12.000    Y    Y      Y    6-31g**
  C47       1.949  1.900  0.770   12.000    Y    Y      Y    6-31g**
  C48       1.949  1.900  0.770   12.000    Y    Y      Y    6-31g**
  C49       1.949  1.900  0.770   12.000    Y    Y      Y    6-31g**
  C50       1.949  1.900  0.770   12.000    Y    Y      Y    6-31g**
  C51       1.949  1.900  0.770   12.000    Y    Y      Y    6-31g**
  C52       1.949  1.900  0.770   12.000    Y    Y      Y    6-31g**
  C53       1.949  1.900  0.770   12.000    Y    Y      Y    6-31g**
  C54       1.949  1.900  0.770   12.000    Y    Y      Y    6-31g**
  C55       1.949  1.900  0.770   12.000    Y    Y      Y    6-31g**
  C56       1.949  1.900  0.770   12.000    Y    Y      Y    6-31g**
  C57       1.949  1.900  0.770   12.000    Y    Y      Y    6-31g**
  C58       1.949  1.900  0.770   12.000    Y    Y      Y    6-31g**
  C59       1.949  1.900  0.770   12.000    Y    Y      Y    6-31g**
  C60       1.949  1.900  0.770   12.000    Y    Y      Y    6-31g**
  C61       1.949  1.900  0.770   12.000    Y    Y      Y    6-31g**
  C62       1.949  1.900  0.770   12.000    Y    Y      Y    6-31g**
  C63       1.949  1.900  0.770   12.000    Y    Y      Y    6-31g**
  C64       1.949  1.900  0.770   12.000    Y    Y      Y    6-31g**
  C65       1.949  1.900  0.770   12.000    Y    Y      Y    6-31g**
  C66       1.949  1.900  0.770   12.000    Y    Y      Y    6-31g**
  C67       1.949  1.900  0.770   12.000    Y    Y      Y    6-31g**
  C68       1.949  1.900  0.770   12.000    Y    Y      Y    6-31g**
  C69       1.949  1.900  0.770   12.000    Y    Y      Y    6-31g**
  C70       1.949  1.900  0.770   12.000    Y    Y      Y    6-31g**
  N71       1.831  1.600  0.750   14.003    Y    Y      Y    6-31g**
  S72       2.070  1.900  1.020   31.972    Y    Y      Y    6-31g**
  O73       1.702  1.600  0.730   15.995    Y    Y      Y    6-31g**
  O74       1.702  1.600  0.730   15.995    Y    Y      Y    6-31g**
  C75       1.949  1.900  0.770   12.000    Y    Y      Y    6-31g**
  C76       1.949  1.900  0.770   12.000    Y    Y      Y    6-31g**
  C77       1.949  1.900  0.770   12.000    Y    Y      Y    6-31g**
  C78       1.949  1.900  0.770   12.000    Y    Y      Y    6-31g**
  C79       1.949  1.900  0.770   12.000    Y    Y      Y    6-31g**
  N80       1.831  1.600  0.750   14.003    Y    Y      Y    6-31g**
  N81       1.831  1.600  0.750   14.003    Y    Y      Y    6-31g**
  C82       1.949  1.900  0.770   12.000    Y    Y      Y    6-31g**
  C83       1.949  1.900  0.770   12.000    Y    Y      Y    6-31g**
  C84       1.949  1.900  0.770   12.000    Y    Y      Y    6-31g**
  C85       1.949  1.900  0.770   12.000    Y    Y      Y    6-31g**
  H86       1.597  1.150  0.320    1.008    Y    Y      Y    6-31g**
  H87       1.597  1.150  0.320    1.008    Y    Y      Y    6-31g**
  H88       1.597  1.150  0.320    1.008    Y    Y      Y    6-31g**
  H89       1.597  1.150  0.320    1.008    Y    Y      Y    6-31g**
  H90       1.597  1.150  0.320    1.008    Y    Y      Y    6-31g**
  H91       1.597  1.150  0.320    1.008    Y    Y      Y    6-31g**
  H92       1.597  1.150  0.320    1.008    Y    Y      Y    6-31g**
  H93       1.597  1.150  0.320    1.008    Y    Y      Y    6-31g**
  H94       1.597  1.150  0.320    1.008    Y    Y      Y    6-31g**
  H95       1.597  1.150  0.320    1.008    Y    Y      Y    6-31g**
  H96       1.597  1.150  0.320    1.008    Y    Y      Y    6-31g**
  H97       1.597  1.150  0.320    1.008    Y    Y      Y    6-31g**
  H98       1.597  1.150  0.320    1.008    Y    Y      Y    6-31g**
  H99       1.597  1.150  0.320    1.008    Y    Y      Y    6-31g**
  H100      1.597  1.150  0.320    1.008    Y    Y      Y    6-31g**
  H101      1.597  1.150  0.320    1.008    Y    Y      Y    6-31g**
  H102      1.597  1.150  0.320    1.008    Y    Y      Y    6-31g**
  H103      1.597  1.150  0.320    1.008    Y    Y      Y    6-31g**
  H104      1.597  1.150  0.320    1.008    Y    Y      Y    6-31g**
  H105      1.597  1.150  0.320    1.008    Y    Y      Y    6-31g**
  H106      1.597  1.150  0.320    1.008    Y    Y      Y    6-31g**
  H107      1.597  1.150  0.320    1.008    Y    Y      Y    6-31g**
  H108      1.597  1.150  0.320    1.008    Y    Y      Y    6-31g**
  H109      1.597  1.150  0.320    1.008    Y    Y      Y    6-31g**
  H110      1.597  1.150  0.320    1.008    Y    Y      Y    6-31g**
  H111      1.597  1.150  0.320    1.008    Y    Y      Y    6-31g**
  H112      1.597  1.150  0.320    1.008    Y    Y      Y    6-31g**
  H113      1.597  1.150  0.320    1.008    Y    Y      Y    6-31g**
  H114      1.597  1.150  0.320    1.008    Y    Y      Y    6-31g**
  H115      1.597  1.150  0.320    1.008    Y    Y      Y    6-31g**
  H116      1.597  1.150  0.320    1.008    Y    Y      Y    6-31g**
  H117      1.597  1.150  0.320    1.008    Y    Y      Y    6-31g**
  H118      1.597  1.150  0.320    1.008    Y    Y      Y    6-31g**
  H119      1.597  1.150  0.320    1.008    Y    Y      Y    6-31g**
  H120      1.597  1.150  0.320    1.008    Y    Y      Y    6-31g**
  H121      1.597  1.150  0.320    1.008    Y    Y      Y    6-31g**
  H122      1.597  1.150  0.320    1.008    Y    Y      Y    6-31g**
  H123      1.597  1.150  0.320    1.008    Y    Y      Y    6-31g**
  H124      1.597  1.150  0.320    1.008    Y    Y      Y    6-31g**
  H125      1.597  1.150  0.320    1.008    Y    Y      Y    6-31g**
  H126      1.597  1.150  0.320    1.008    Y    Y      Y    6-31g**
  H127      1.597  1.150  0.320    1.008    Y    Y      Y    6-31g**
  H128      1.597  1.150  0.320    1.008    Y    Y      Y    6-31g**
  H129      1.597  1.150  0.320    1.008    Y    Y      Y    6-31g**
  H130      1.597  1.150  0.320    1.008    Y    Y      Y    6-31g**
  H131      1.597  1.150  0.320    1.008    Y    Y      Y    6-31g**
  H132      1.597  1.150  0.320    1.008    Y    Y      Y    6-31g**
  H133      1.597  1.150  0.320    1.008    Y    Y      Y    6-31g**
  H134      1.597  1.150  0.320    1.008    Y    Y      Y    6-31g**
  H135      1.597  1.150  0.320    1.008    Y    Y      Y    6-31g**
  H136      1.597  1.150  0.320    1.008    Y    Y      Y    6-31g**
  H137      1.597  1.150  0.320    1.008    Y    Y      Y    6-31g**
  H138      1.597  1.150  0.320    1.008    Y    Y      Y    6-31g**
  H139      1.597  1.150  0.320    1.008    Y    Y      Y    6-31g**
  H140      1.597  1.150  0.320    1.008    Y    Y      Y    6-31g**
  H141      1.597  1.150  0.320    1.008    Y    Y      Y    6-31g**
  
  Peak memory usage:    766 Mb
  
  end of program pre
   
 Time(pre)  user:        1.0  user+sys:        1.0  wallclock:        2.4
  
  start of program onee
  
  smallest eigenvalue of S:    2.154E-04
  number of canonical orbitals.....         1564
  Peak memory usage:    893 Mb
  
  end of program onee
   
 Time(onee)  user:       15.2  user+sys:       15.2  wallclock:       22.3
  
  start of program hfig
  
  initial wavefunction generated automatically from atomic wavefunctions
 
  Irreducible     Total no   No of occupied orbitals 
  representation  orbitals   Shell_1  Shell_2    ...
  No Symm         1564        308
  ------------------------
  Orbital occupation/shell    1.000
 
  Peak memory usage:    826 Mb
  
  end of program hfig
   
 Time(hfig)  user:       25.5  user+sys:       25.5  wallclock:       31.6
  
  start of program probe
  
  Peak memory usage:    820 Mb
  
  end of program probe
   
 Time(probe)  user:       18.0  user+sys:       18.0  wallclock:       21.7
  
  start of program grid
  
   grid     grid set  grid #  grid sym
  ------    --------  ------  --------
  coarse        0        0        1
  medium        2        1        1
  fine          0        0        1
  ultrafine     4        2        1
  charge       -1        3        1
  gradient      4        2        1
  density       0        0        1
  DFT-fine    -13        4        1
  DFT-med.    -13        4        1
  DFT-grad    -13        4        1
  DFT-der2      0        0        1
  DFT-cphf      0        0        1
  LMP2-enrg     4        2        1
  LMP2-grad     2        1        1
  DFT-cphf2     0        0        1
  PBF-dens      0        0        1
  plotting      0        0        1
  Rel-grad    -17        0        1
  
  number of gridpoints: 
     atom        C1       C2       C3       C4       C5       C6       C7
  grid # 1       97      102       94      102      100       96       93
  grid # 2      337      359      336      366      358      338      335
  grid # 3       33       31       42       48       16       45       22
  grid # 4    48124    48124    48124    48124    48124    48124    48124
   
  number of gridpoints: 
     atom        C8       C9      C10      C11      O12     Si13      C14
  grid # 1       94       96      100       99      111      479      101
  grid # 2      336      350      356      360      432      479      357
  grid # 3       47       15       12        6       30        6       14
  grid # 4    48124    48124    48124    48124    47716    38542    48124
   
  number of gridpoints: 
     atom       C15      C16      C17      C18      C19      C20     Si21
  grid # 1       98      101       96       95       97      101      478
  grid # 2      360      364      338      335      339      361      478
  grid # 3       20       32       23       28       39       15        9
  grid # 4    48124    48124    48124    48124    48124    48124    38542
   
  number of gridpoints: 
     atom       O22      C23      C24      P25      O26      O27      C28
  grid # 1      112       94       94      441      117      113      100
  grid # 2      441      338      338      441      449      434      361
  grid # 3       63       32       42        9       84       24       10
  grid # 4    47716    48124    48124    38640    47716    47716    48124
   
  number of gridpoints: 
     atom       C29      C30      C31      C32      C33      C34      C35
  grid # 1      100      100       99      101      101       93       94
  grid # 2      358      355      358      361      357      335      334
  grid # 3       13        7        6       19       11       16       16
  grid # 4    48124    48124    48124    48124    48124    48124    48124
   
  number of gridpoints: 
     atom       C36      C37      C38      C39      C40      C41      C42
  grid # 1       92       96       92       96       92       94       92
  grid # 2      335      339      330      331      333      335      336
  grid # 3       18       34       10       11       13       16       21
  grid # 4    48124    48124    48124    48124    48124    48124    48124
   
  number of gridpoints: 
     atom       C43      C44      C45      C46      C47      C48      C49
  grid # 1       97       92       94       93       93       93       94
  grid # 2      340      334      332      333      331      330      335
  grid # 3       37       11       26       23       26       20       39
  grid # 4    48124    48124    48124    48124    48124    48124    48124
   
  number of gridpoints: 
     atom       C50      C51      C52      C53      C54      C55      C56
  grid # 1       94       94       92       93       92       93       93
  grid # 2      335      335      333      331      329      333      333
  grid # 3       46       46       22       21       18       26       29
  grid # 4    48124    48124    48124    48124    48124    48124    48124
   
  number of gridpoints: 
     atom       C57      C58      C59      C60      C61      C62      C63
  grid # 1       93       94       94       94       93       93       93
  grid # 2      333      335      336      337      336      335      335
  grid # 3       24       43       49       46       34       40       36
  grid # 4    48124    48124    48124    48124    48124    48124    48124
   
  number of gridpoints: 
     atom       C64      C65      C66      C67      C68      C69      C70
  grid # 1       96       96      100       95       95       96       91
  grid # 2      332      334      360      332      332      332      322
  grid # 3       37       29       21       18       25       37        6
  grid # 4    48124    48124    48124    48124    48124    48124    48124
   
  number of gridpoints: 
     atom       N71      S72      O73      O74      C75      C76      C77
  grid # 1      100      442      123      120       97       95       95
  grid # 2      355      442      500      468      357      324      325
  grid # 3       28       11      273       58       16        8       10
  grid # 4    47928    48492    47716    47716    48124    48124    48124
   
  number of gridpoints: 
     atom       C78      C79      N80      N81      C82      C83      C84
  grid # 1       95       95      111       98       94       93       93
  grid # 2      327      336      422      342      328      328      327
  grid # 3       18       19      102        8       14       14        7
  grid # 4    48124    48124    47928    47928    48124    48124    48124
   
  number of gridpoints: 
     atom       C85      H86      H87      H88      H89      H90      H91
  grid # 1       91      112      118      118      109      118      110
  grid # 2      322      435      453      446      425      453      425
  grid # 3        7      258      418      362      181      424      179
  grid # 4    48124    48426    48426    48426    48426    48426    48426
   
  number of gridpoints: 
     atom       H92      H93      H94      H95      H96      H97      H98
  grid # 1      110      118      117      118       97      108      108
  grid # 2      422      441      449      450      386      429      425
  grid # 3      169      358      386      416       42      225      181
  grid # 4    48426    48426    48426    48426    48426    48426    48426
   
  number of gridpoints: 
     atom       H99     H100     H101     H102     H103     H104     H105
  grid # 1      112      113      112      108      110      111      112
  grid # 2      436      431      419      422      417      435      429
  grid # 3      249      254      168      163      137      250      218
  grid # 4    48426    48426    48426    48426    48426    48426    48426
   
  number of gridpoints: 
     atom      H106     H107     H108     H109     H110     H111     H112
  grid # 1      111      112      104      117      116      115      118
  grid # 2      430      434      406      451      446      441      452
  grid # 3      226      242       65      393      342      313      414
  grid # 4    48426    48426    48426    48426    48426    48426    48426
   
  number of gridpoints: 
     atom      H113     H114     H115     H116     H117     H118     H119
  grid # 1      118      118      117      117      116      112      117
  grid # 2      453      453      449      448      442      431      451
  grid # 3      425      425      363      364      310      196      387
  grid # 4    48426    48426    48426    48426    48426    48426    48426
   
  number of gridpoints: 
     atom      H120     H121     H122     H123     H124     H125     H126
  grid # 1      116      118      118      118      118      118      115
  grid # 2      445      452      453      453      452      452      440
  grid # 3      346      414      425      423      412      417      299
  grid # 4    48426    48426    48426    48426    48426    48426    48426
   
  number of gridpoints: 
     atom      H127     H128     H129     H130     H131     H132     H133
  grid # 1      118      112      102      108      118      106      103
  grid # 2      450      436      407      424      450      416      408
  grid # 3      412      280       87      160      400      149       67
  grid # 4    48426    48426    48426    48426    48426    48426    48426
   
  number of gridpoints: 
     atom      H134     H135     H136     H137     H138     H139     H140
  grid # 1      112      117      117       99      114      116      115
  grid # 2      434      451      452      394      446      459      449
  grid # 3      212      399      436       67      302      428      340
  grid # 4    48426    48426    48426    48426    48426    48426    48426
   
  number of gridpoints: 
     atom      H141    total
  grid # 1      107    16047
  grid # 2      413    54582
  grid # 3      110    18524
  grid # 4    48426  6771080
   
  Peak memory usage:    793 Mb
  
  end of program grid
   
 Time(grid)  user:     1064.2  user+sys:     1064.2  wallclock:     1159.3
  
  start of program rwr
  
  Peak memory usage:    802 Mb
  
  end of program rwr
   
 Time(rwr)  user:       60.9  user+sys:       60.9  wallclock:       80.5
  
  start of program scf
  
 number of electrons..........        616
 number of alpha electrons....        308
 number of beta electrons.....        308
 number of orbitals, total....       1564
 number of doubly-occ'd orbs..        308
 number of open shell orbs....          0
 number of occupied orbitals..        308
 number of virtual orbitals...       1256
 number of hamiltonians.......          1
 number of shells.............          1
 SCF type: DFT=M06-2X
 Energy computed with NOPS off.
  
       i  u  d  i  g                   
       t  p  i  c  r                                 RMS    maximum
       e  d  i  u  i                       energy  density   DIIS  
       r  t  s  t  d       total energy    change  change    error 
  
etot    1  N  N  1  U   -4700.08378733938           2.4E-03  1.1E-01
etot    2  N  Y  1  U   -4706.63035461975  6.5E+00  2.9E-03  6.5E-02
etot    3  N  Y  1  U   -4705.03583020628 -1.6E+00  2.5E-03  1.0E-01
etot    4  N  Y  1  U   -4709.72576980633  4.7E+00  5.9E-04  1.7E-02
etot    5  N  Y  1  U   -4709.94378769700  2.2E-01  2.6E-04  1.1E-02
etot    6  N  Y  1  U   -4710.03642786671  9.3E-02  8.0E-05  3.6E-03
etot    7  N  Y  1  U   -4710.04435637400  7.9E-03  2.6E-05  1.2E-03
etot    8  N  Y  1  U   -4710.04513292216  7.8E-04  1.1E-05  3.4E-04
etot    9  N  Y  1  U   -4710.04526854015  1.4E-04  4.7E-06  1.7E-04
etot   10  N  N  1  U   -4710.04529675500  2.8E-05  0.0E+00  0.0E+00
  
  
 Energy components, in hartrees:
   (A)  Nuclear repulsion............   17523.58545901068
   (E)  Total one-electron terms.....  -41385.02684190717
   (F)    Electron-nuclear...........  -46060.31253294410
   (H)    Kinetic....................    4675.28569103692
   (I)  Total two-electron terms.....   19151.39608614149
   (J)    Coulomb....................   19724.73705345342
   (K)    Exchange+Correlation.......    -573.34096731193
   (L)  Electronic energy............  -22233.63075576568  (E+I)
   (M)  -V/T.........................       2.00743475544  (-(A+F+I)/H)
   (N)  Total energy.................   -4710.04529675500  (A+L)
   (O)  Gas phase energy.............   -4710.04529675500
  
 SCFE: SCF energy: DFT(m06-2x)     -4710.04529675500 hartrees   iterations:  10
  
 
 HOMO energy:    -0.25213
 LUMO energy:    -0.05952
 
  Orbital energies (hartrees): 
   -90.15867   -78.18719   -67.00519   -67.00428   -19.67771   -19.67366
   -19.64117   -19.63978   -19.59383   -19.58862   -14.81240   -14.79978
   -14.78163   -10.65565   -10.62267   -10.61867   -10.61766   -10.61137
   -10.59995   -10.59323   -10.57933   -10.57886   -10.57567   -10.57320
   -10.57320   -10.57046   -10.57018   -10.56664   -10.56557   -10.56556
   -10.56552   -10.56385   -10.56275   -10.56203   -10.56133   -10.56117
   -10.55665   -10.55592   -10.55498   -10.55491   -10.55407   -10.55298
   -10.55254   -10.55026   -10.54952   -10.54929   -10.54907   -10.54841
   -10.54743   -10.54741   -10.54709   -10.54691   -10.54604   -10.54497
   -10.54451   -10.54446   -10.54439   -10.54388   -10.54382   -10.54364
   -10.54341   -10.54325   -10.54308   -10.54278   -10.54227   -10.54216
   -10.54205   -10.54170   -10.54150   -10.54148   -10.54128   -10.54023
   -10.53985   -10.53877   -10.53809   -10.53765   -10.53756   -10.53470
   -10.53304   -10.53155   -10.52795   -10.52778   -10.52588   -10.52385
   -10.52237    -8.46986    -6.96605    -6.39196    -6.39104    -6.39025
    -5.53635    -5.53525    -5.08456    -5.08354    -5.08203    -3.84609
    -3.84579    -3.84571    -3.84526    -3.84467    -3.84440    -1.23383
    -1.21183    -1.16880    -1.11985    -1.10447    -1.09068    -1.07410
    -1.05762    -1.04263    -0.97997    -0.97071    -0.96482    -0.94223
    -0.94041    -0.93678    -0.93618    -0.93423    -0.93161    -0.91885
    -0.91500    -0.90869    -0.89386    -0.88908    -0.88769    -0.87269
    -0.85244    -0.85144    -0.84131    -0.83861    -0.83538    -0.83383
    -0.83109    -0.83052    -0.82994    -0.82830    -0.82679    -0.82579
    -0.82327    -0.82271    -0.82182    -0.81988    -0.81950    -0.81759
    -0.79827    -0.79706    -0.74929    -0.73284    -0.72863    -0.70878
    -0.70512    -0.69944    -0.69351    -0.68905    -0.68645    -0.68255
    -0.67680    -0.67596    -0.67430    -0.67329    -0.67086    -0.66913
    -0.66837    -0.66520    -0.66461    -0.66223    -0.65923    -0.65759
    -0.65655    -0.65456    -0.65429    -0.64458    -0.64197    -0.63405
    -0.61819    -0.60937    -0.60528    -0.59958    -0.59653    -0.59355
    -0.57976    -0.57782    -0.57630    -0.57544    -0.57396    -0.57320
    -0.57049    -0.56358    -0.56205    -0.55689    -0.54839    -0.54689
    -0.54116    -0.54052    -0.53552    -0.53130    -0.52833    -0.52498
    -0.52266    -0.51991    -0.51609    -0.51531    -0.51445    -0.51275
    -0.51062    -0.50994    -0.50890    -0.50327    -0.50269    -0.49942
    -0.49838    -0.49772    -0.49651    -0.49623    -0.49565    -0.49492
    -0.49325    -0.49132    -0.49009    -0.48920    -0.48845    -0.48755
    -0.48246    -0.48105    -0.48082    -0.47997    -0.47812    -0.47689
    -0.47469    -0.47368    -0.47199    -0.47013    -0.46925    -0.46605
    -0.45817    -0.45524    -0.45103    -0.44899    -0.44790    -0.44623
    -0.44431    -0.44285    -0.44152    -0.43649    -0.43367    -0.43136
    -0.42631    -0.42289    -0.42182    -0.42037    -0.41942    -0.41772
    -0.41572    -0.41469    -0.41149    -0.40994    -0.40649    -0.40417
    -0.39789    -0.39679    -0.39145    -0.39032    -0.39006    -0.38924
    -0.38696    -0.38679    -0.38626    -0.38436    -0.38395    -0.37947
    -0.37946    -0.37542    -0.37321    -0.37150    -0.36709    -0.35431
    -0.35205    -0.34933    -0.34707    -0.34297    -0.33934    -0.33833
    -0.33631    -0.33535    -0.33440    -0.33407    -0.33225    -0.32494
    -0.32127    -0.31289    -0.31054    -0.30206    -0.30087    -0.29845
    -0.29734    -0.29364    -0.29291    -0.29065    -0.28963    -0.28813
    -0.28615    -0.28432    -0.28334    -0.28290    -0.28150    -0.27777
    -0.27005    -0.25213    -0.05952    -0.01802    -0.01252     0.00499
     0.00722     0.00997     0.01696     0.02112     0.02414     0.02510
 
  Peak memory usage:   1020 Mb
  
  end of program scf
   
 Time(scf)  user:    20132.7  user+sys:    20132.7  wallclock:    20457.5
  
  start of program ch
  
  gridpoints used for charge fit        15953
    out of a possible maximum of        18524
  
   Electrostatic potential fitting constrained to reproduce
     total charge:                yes
     dipole moment:               no 
     traceless quadrupole moment: no 
     traceless octapole moment:   no 
  
  Atomic charges from electrostatic potential: 
   
 Atom       C1           C2           C3           C4           C5      
 Charge   -0.11041     -0.04358     -0.17642      0.21216      0.10220
   
 Atom       C6           C7           C8           C9           C10     
 Charge   -0.22566     -0.41246     -0.10726     -0.11467     -0.11257
   
 Atom       C11          O12          Si13         C14          C15     
 Charge    0.29504     -0.14074     -0.36366      0.12788      0.09899
   
 Atom       C16          C17          C18          C19          C20     
 Charge    0.22488     -0.18699     -0.40567     -0.24798     -0.00235
   
 Atom       Si21         O22          C23          C24          P25     
 Charge    0.24779     -0.28267     -0.14090     -0.12225      0.93200
   
 Atom       O26          O27          C28          C29          C30     
 Charge   -0.60846     -0.52270      0.10047      0.25554      0.23592
   
 Atom       C31          C32          C33          C34          C35     
 Charge    0.03710     -0.02906     -0.08942     -0.10600     -0.07738
   
 Atom       C36          C37          C38          C39          C40     
 Charge   -0.18428     -0.25145     -0.10928     -0.13248      0.00988
   
 Atom       C41          C42          C43          C44          C45     
 Charge   -0.26522     -0.06230     -0.11247      0.08735     -0.05576
   
 Atom       C46          C47          C48          C49          C50     
 Charge   -0.21519     -0.08395     -0.18638     -0.14630     -0.15220
   
 Atom       C51          C52          C53          C54          C55     
 Charge   -0.09479     -0.21565     -0.09574     -0.17785     -0.18112
   
 Atom       C56          C57          C58          C59          C60     
 Charge   -0.14967     -0.06924     -0.18568     -0.11418     -0.14174
   
 Atom       C61          C62          C63          C64          C65     
 Charge   -0.29677     -0.04811     -0.17654     -0.13965     -0.21245
   
 Atom       C66          C67          C68          C69          C70     
 Charge    0.21742      0.00334     -0.13010     -0.15277     -0.11338
   
 Atom       N71          S72          O73          O74          C75     
 Charge   -0.41081      0.75862     -0.44772     -0.45297      0.59551
   
 Atom       C76          C77          C78          C79          N80     
 Charge   -0.37187      0.37548     -0.57859      0.39564     -0.63852
   
 Atom       N81          C82          C83          C84          C85     
 Charge    0.14531     -0.21808     -0.11642     -0.29945      0.05196
   
 Atom       H86          H87          H88          H89          H90     
 Charge    0.11708      0.14531      0.14466      0.18012      0.13159
   
 Atom       H91          H92          H93          H94          H95     
 Charge    0.12736      0.17849      0.15266      0.13787      0.13206
   
 Atom       H96          H97          H98          H99          H100    
 Charge    0.28165      0.12272      0.10451      0.13630      0.13178
   
 Atom       H101         H102         H103         H104         H105    
 Charge    0.12677      0.10523      0.02930      0.14612      0.09124
   
 Atom       H106         H107         H108         H109         H110    
 Charge    0.07748      0.06858      0.05562      0.14503      0.11244
   
 Atom       H111         H112         H113         H114         H115    
 Charge    0.13343      0.13555      0.13462      0.12829      0.15069
   
 Atom       H116         H117         H118         H119         H120    
 Charge    0.12244      0.12430      0.12553      0.13799      0.11513
   
 Atom       H121         H122         H123         H124         H125    
 Charge    0.13850      0.12803      0.13474      0.15893      0.12123
   
 Atom       H126         H127         H128         H129         H130    
 Charge    0.11233      0.14712      0.13962      0.01256      0.13841
   
 Atom       H131         H132         H133         H134         H135    
 Charge    0.14338      0.19625      0.03612      0.04076      0.21544
   
 Atom       H136         H137         H138         H139         H140    
 Charge    0.07125      0.19422      0.20877      0.15491      0.19240
   
 Atom       H141    
 Charge    0.13102
  
  sum of atomic charges:    -0.000000
   
 RMS Error   9.49E-04 hartrees
 
  Peak memory usage:    810 Mb
  
  end of program ch
   
 Time(ch)  user:       15.2  user+sys:       15.2  wallclock:       16.5
  
  start of program post
  
  Writing input files for PBF
  Peak memory usage:    758 Mb
  
  end of program post
   
 Time(post)  user:        0.6  user+sys:        0.6  wallclock:        0.8

  start of program pbf

Pbf Version 4.10

Molecular surface area:      790.01090   [A2]
Reaction field energy:       -16.28718   [kT]
  Peak memory usage: 718 Mb

  end of program pbf

 Time(pbf)  user:       12.4  user+sys:       12.5  wallclock:       12.8
  
  start of program solv
  
   number of surface charges from PBF   12806
   sum of surface charges     -0.00049
   
  nuclear repulsion energy.......   17523.585459011 hartrees
  Peak memory usage:    887 Mb
  
  end of program solv
   
 Time(solv)  user:       29.3  user+sys:       29.3  wallclock:       29.4
  
  start of program scf
  
 Energy computed with NOPS off.
  
       i  u  d  i  g                   
       t  p  i  c  r                                 RMS    maximum
       e  d  i  u  i                       energy  density   DIIS  
       r  t  s  t  d       total energy    change  change    error 
  
etot    1  N  N  1  U   -4710.07943676640           5.8E-05  1.4E-03
etot    2  N  Y  1  U   -4710.08017583480  7.4E-04  1.9E-05  1.1E-03
etot    3  N  Y  1  U   -4710.08046038810  2.8E-04  6.2E-06  4.5E-04
etot    4  N  Y  1  U   -4710.08051711872  5.7E-05  2.5E-06  1.1E-04
etot    5  N  N  1  U   -4710.08052328473  6.2E-06  0.0E+00  0.0E+00
  
  
 Energy components, in hartrees:
   (A)  Total zero-electron terms....   17525.74482831058
   (B)    Nuclear-nuclear............   17523.58545901068
   (C)    Nuclear-solvent............       2.15936929991
   (E)  Total one-electron terms.....  -41388.56418761499
   (F)    Electron-nuclear...........  -46061.71389246576
   (G)    Electron-solvent...........      -2.19566815755
   (H)    Kinetic....................    4675.34537300831
   (I)  Total two-electron terms.....   19152.73883601967
   (J)    Coulomb....................   19726.10058045942
   (K)    Exchange+Correlation.......    -573.36174443974
   (L)  Electronic energy............  -22235.82535159531  (E+I)
   (N)  Total quantum mech. energy...   -4710.08052328473  (A+L)
   (O)  Gas phase energy.............   -4710.04529675500
   (P)  Solution phase energy........   -4710.06237385591  (Q+R+S)
   (Q)    Total solute energy........   -4710.04422442709  (N-C-G)
   (R)    Total solvent energy.......      -0.01814942882  (C/2+G/2)
   (S)    Solute cavity energy.......       0.00000000000
   (U)  Reorganization energy........       0.00107232791  (Q-O)
   (V)  Solvation energy.............      -0.01707710091  (P-O)
  
 SCFE:  Solution phase energy: DFT(m06-2x)      -4710.06237385591 hartrees
        SCF iterations:   5
  
 
 HOMO energy:    -0.25400
 LUMO energy:    -0.05755
 
  Orbital energies (hartrees): 
   -90.16389   -78.18888   -67.00734   -67.00658   -19.67948   -19.67552
   -19.64924   -19.64335   -19.59528   -19.58947   -14.80951   -14.80106
   -14.78549   -10.65366   -10.62604   -10.62028   -10.61969   -10.60836
   -10.60116   -10.59124   -10.58096   -10.57637   -10.57604   -10.57540
   -10.57124   -10.56975   -10.56773   -10.56744   -10.56701   -10.56369
   -10.56329   -10.56282   -10.56192   -10.56004   -10.55902   -10.55878
   -10.55845   -10.55801   -10.55570   -10.55554   -10.55538   -10.55448
   -10.55290   -10.55282   -10.55135   -10.55104   -10.55102   -10.55031
   -10.54985   -10.54922   -10.54921   -10.54895   -10.54833   -10.54717
   -10.54698   -10.54679   -10.54658   -10.54638   -10.54591   -10.54529
   -10.54524   -10.54517   -10.54474   -10.54435   -10.54347   -10.54343
   -10.54336   -10.54334   -10.54288   -10.54278   -10.54163   -10.54145
   -10.54093   -10.54073   -10.54033   -10.53988   -10.53902   -10.53597
   -10.53459   -10.53434   -10.53109   -10.52999   -10.52736   -10.52614
   -10.52406    -8.47507    -6.96769    -6.39711    -6.39631    -6.39544
    -5.53850    -5.53758    -5.08622    -5.08519    -5.08366    -3.84824
    -3.84795    -3.84786    -3.84758    -3.84700    -3.84671    -1.23969
    -1.21356    -1.17059    -1.12612    -1.10270    -1.09124    -1.07743
    -1.05867    -1.04369    -0.98170    -0.96822    -0.96679    -0.94508
    -0.94338    -0.93928    -0.93800    -0.93575    -0.93327    -0.92044
    -0.91697    -0.91042    -0.89410    -0.88953    -0.88715    -0.87149
    -0.85306    -0.84960    -0.84325    -0.84091    -0.83650    -0.83414
    -0.83266    -0.83255    -0.83178    -0.82970    -0.82838    -0.82762
    -0.82520    -0.82480    -0.82318    -0.82170    -0.82133    -0.81933
    -0.79988    -0.79765    -0.74963    -0.73437    -0.73032    -0.70901
    -0.70556    -0.70075    -0.69539    -0.68873    -0.68770    -0.68145
    -0.67803    -0.67646    -0.67543    -0.67409    -0.67322    -0.67075
    -0.66998    -0.66628    -0.66357    -0.66134    -0.66077    -0.65966
    -0.65763    -0.65608    -0.65560    -0.64537    -0.64156    -0.63356
    -0.61975    -0.60847    -0.60689    -0.60135    -0.59830    -0.59610
    -0.58136    -0.57956    -0.57760    -0.57635    -0.57494    -0.57424
    -0.57179    -0.56453    -0.56385    -0.55824    -0.54871    -0.54789
    -0.54229    -0.54007    -0.53659    -0.53313    -0.52881    -0.52608
    -0.52341    -0.51998    -0.51715    -0.51632    -0.51493    -0.51317
    -0.51118    -0.51020    -0.50995    -0.50467    -0.50157    -0.50132
    -0.49910    -0.49873    -0.49762    -0.49730    -0.49558    -0.49500
    -0.49475    -0.49272    -0.49125    -0.49075    -0.48998    -0.48898
    -0.48386    -0.48296    -0.48185    -0.48056    -0.48037    -0.47860
    -0.47510    -0.47369    -0.47187    -0.47124    -0.46724    -0.46502
    -0.45968    -0.45700    -0.45212    -0.45069    -0.44940    -0.44781
    -0.44479    -0.44368    -0.44134    -0.43853    -0.43421    -0.43248
    -0.42831    -0.42554    -0.42397    -0.42229    -0.41977    -0.41901
    -0.41735    -0.41596    -0.41347    -0.41021    -0.40734    -0.40560
    -0.39952    -0.39800    -0.39576    -0.39260    -0.39213    -0.39127
    -0.38925    -0.38913    -0.38738    -0.38581    -0.38490    -0.38167
    -0.38063    -0.37893    -0.37694    -0.37342    -0.36889    -0.35686
    -0.35388    -0.35115    -0.34848    -0.34516    -0.34120    -0.34082
    -0.34020    -0.33689    -0.33607    -0.33512    -0.33115    -0.32670
    -0.32359    -0.31166    -0.30872    -0.30474    -0.30385    -0.30194
    -0.30101    -0.29639    -0.29446    -0.29249    -0.29138    -0.29041
    -0.28785    -0.28627    -0.28559    -0.28448    -0.28358    -0.27772
    -0.27210    -0.25400    -0.05755    -0.01974    -0.01527     0.00261
     0.00527     0.00778     0.01422     0.02188     0.02264     0.02427
 
  Peak memory usage:   1020 Mb
  
  end of program scf
   
 Time(scf)  user:     7932.5  user+sys:     7932.5  wallclock:     8014.1
  
  start of program sole
  
    SCRF                   solvation energy
  iteration          Hartrees            kcal/mol
     0               0.0000000            0.0000
     1              -0.0170771          -10.7160
  
  solvation energy not yet converged... 
  
  Peak memory usage:    812 Mb
  
  end of program sole
   
 Time(sole)  user:        0.1  user+sys:        0.1  wallclock:        0.1
  
  start of program ch
  
  gridpoints used for charge fit        15953
    out of a possible maximum of        15953
  
   Electrostatic potential fitting constrained to reproduce
     total charge:                yes
     dipole moment:               no 
     traceless quadrupole moment: no 
     traceless octapole moment:   no 
  
  Atomic charges from electrostatic potential: 
   
 Atom       C1           C2           C3           C4           C5      
 Charge   -0.11259     -0.04447     -0.18441      0.21686      0.09987
   
 Atom       C6           C7           C8           C9           C10     
 Charge   -0.23527     -0.43365     -0.11364     -0.13136     -0.10137
   
 Atom       C11          O12          Si13         C14          C15     
 Charge    0.32584     -0.12891     -0.40410      0.11774      0.08004
   
 Atom       C16          C17          C18          C19          C20     
 Charge    0.23538     -0.18232     -0.42402     -0.26110      0.01314
   
 Atom       Si21         O22          C23          C24          P25     
 Charge    0.23759     -0.27144     -0.15072     -0.12393      0.92431
   
 Atom       O26          O27          C28          C29          C30     
 Charge   -0.60262     -0.51833      0.11413      0.26587      0.25590
   
 Atom       C31          C32          C33          C34          C35     
 Charge    0.05230     -0.03383     -0.09330     -0.11555     -0.07940
   
 Atom       C36          C37          C38          C39          C40     
 Charge   -0.19090     -0.25850     -0.11642     -0.13578      0.00151
   
 Atom       C41          C42          C43          C44          C45     
 Charge   -0.27697     -0.06376     -0.10904      0.09380     -0.05724
   
 Atom       C46          C47          C48          C49          C50     
 Charge   -0.22547     -0.08894     -0.19662     -0.15197     -0.16113
   
 Atom       C51          C52          C53          C54          C55     
 Charge   -0.10244     -0.22662     -0.09778     -0.19118     -0.19138
   
 Atom       C56          C57          C58          C59          C60     
 Charge   -0.15428     -0.07675     -0.19444     -0.12102     -0.15321
   
 Atom       C61          C62          C63          C64          C65     
 Charge   -0.31101     -0.05101     -0.18345     -0.14323     -0.22288
   
 Atom       C66          C67          C68          C69          C70     
 Charge    0.23023     -0.00229     -0.13099     -0.15885     -0.14425
   
 Atom       N71          S72          O73          O74          C75     
 Charge   -0.39496      0.76697     -0.47583     -0.45369      0.60285
   
 Atom       C76          C77          C78          C79          N80     
 Charge   -0.35478      0.36681     -0.57985      0.40952     -0.67608
   
 Atom       N81          C82          C83          C84          C85     
 Charge    0.14992     -0.22548     -0.10960     -0.30990      0.06364
   
 Atom       H86          H87          H88          H89          H90     
 Charge    0.11850      0.15367      0.15193      0.18638      0.14008
   
 Atom       H91          H92          H93          H94          H95     
 Charge    0.12755      0.18486      0.16106      0.14588      0.13927
   
 Atom       H96          H97          H98          H99          H100    
 Charge    0.26860      0.12753      0.10527      0.14153      0.13244
   
 Atom       H101         H102         H103         H104         H105    
 Charge    0.13175      0.10702      0.03255      0.15225      0.09450
   
 Atom       H106         H107         H108         H109         H110    
 Charge    0.07505      0.07052      0.05359      0.15313      0.11773
   
 Atom       H111         H112         H113         H114         H115    
 Charge    0.14188      0.14363      0.14292      0.13642      0.15681
   
 Atom       H116         H117         H118         H119         H120    
 Charge    0.12849      0.13196      0.12821      0.14473      0.12304
   
 Atom       H121         H122         H123         H124         H125    
 Charge    0.14660      0.13604      0.14380      0.16755      0.12886
   
 Atom       H126         H127         H128         H129         H130    
 Charge    0.11719      0.15463      0.14865      0.01992      0.14196
   
 Atom       H131         H132         H133         H134         H135    
 Charge    0.15028      0.20667      0.02485      0.04785      0.22531
   
 Atom       H136         H137         H138         H139         H140    
 Charge    0.07977      0.18852      0.21974      0.16050      0.20161
   
 Atom       H141    
 Charge    0.13109
  
  sum of atomic charges:     0.000000
   
 RMS Error   9.62E-04 hartrees
 
  Peak memory usage:    811 Mb
  
  end of program ch
   
 Time(ch)  user:       15.4  user+sys:       15.4  wallclock:       16.6
  
  start of program post
  
  Writing input files for PBF
  Peak memory usage:    757 Mb
  
  end of program post
   
 Time(post)  user:        0.6  user+sys:        0.6  wallclock:        0.9

  start of program pbf

Pbf Version 4.10

Molecular surface area:      790.01090   [A2]
Reaction field energy:       -18.80790   [kT]
  Peak memory usage: 718 Mb

  end of program pbf

 Time(pbf)  user:       13.5  user+sys:       13.6  wallclock:       14.5
  
  start of program solv
  
   number of surface charges from PBF   12806
   sum of surface charges     -0.00050
   
  nuclear repulsion energy.......   17523.585459011 hartrees
  Peak memory usage:    887 Mb
  
  end of program solv
   
 Time(solv)  user:       29.3  user+sys:       29.3  wallclock:       29.5
  
  start of program scf
  
 Energy computed with NOPS off.
  
       i  u  d  i  g                   
       t  p  i  c  r                                 RMS    maximum
       e  d  i  u  i                       energy  density   DIIS  
       r  t  s  t  d       total energy    change  change    error 
  
etot    1  N  N  1  U   -4710.08317998911           6.9E-06  1.7E-04
etot    2  N  N  1  U   -4710.08318217710  2.2E-06  0.0E+00  0.0E+00
  
  
 Energy components, in hartrees:
   (A)  Total zero-electron terms....   17525.98003485306
   (B)    Nuclear-nuclear............   17523.58545901068
   (C)    Nuclear-solvent............       2.39457584238
   (E)  Total one-electron terms.....  -41389.06976390222
   (F)    Electron-nuclear...........  -46061.98869809848
   (G)    Electron-solvent...........      -2.43384757126
   (H)    Kinetic....................    4675.35278176752
   (I)  Total two-electron terms.....   19153.00654687206
   (J)    Coulomb....................   19726.36990231781
   (K)    Exchange+Correlation.......    -573.36335544574
   (L)  Electronic energy............  -22236.06321703016  (E+I)
   (N)  Total quantum mech. energy...   -4710.08318217710  (A+L)
   (O)  Gas phase energy.............   -4710.04529675500
   (P)  Solution phase energy........   -4710.06354631266  (Q+R+S)
   (Q)    Total solute energy........   -4710.04391044822  (N-C-G)
   (R)    Total solvent energy.......      -0.01963586444  (C/2+G/2)
   (S)    Solute cavity energy.......       0.00000000000
   (U)  Reorganization energy........       0.00138630678  (Q-O)
   (V)  Solvation energy.............      -0.01824955766  (P-O)
  
 SCFE:  Solution phase energy: DFT(m06-2x)      -4710.06354631266 hartrees
        SCF iterations:   2
  
 
 HOMO energy:    -0.27940
 LUMO energy:    -0.05685
 
  Orbital energies (hartrees): 
   -52.66217   -43.51467   -36.20870   -32.34603   -28.90994   -26.37851
   -24.21164   -23.39883   -22.98070   -20.11196   -19.75857   -19.27071
   -17.22792   -16.80946   -16.33730   -15.98370   -15.39433   -14.72228
   -14.02176   -13.74156   -13.47669   -13.31942   -13.07542   -12.88062
   -12.83931   -12.63908   -12.25226   -12.08185   -11.93510   -11.74984
   -11.32242   -11.30500   -11.29813   -11.09097   -11.07983   -11.06849
   -11.04607   -11.04315   -11.02148   -10.98017   -10.94306   -10.88451
   -10.86243   -10.80696   -10.76990   -10.76537   -10.72291   -10.72125
   -10.68895   -10.68797   -10.68251   -10.67454   -10.63198   -10.61049
   -10.60663   -10.59438   -10.58834   -10.58127   -10.57203   -10.56547
   -10.54960   -10.52955   -10.51605   -10.49667   -10.45611   -10.43659
   -10.39888   -10.39785   -10.36548   -10.32748   -10.27649   -10.27257
   -10.24131   -10.21137   -10.13368   -10.04599    -9.98652    -9.93656
    -9.88977    -9.86685    -9.79233    -9.74155    -9.66192    -9.50881
    -9.47872    -9.47520    -9.31707    -9.07811    -9.05052    -8.83371
    -8.79628    -8.40686    -8.33000    -7.89334    -7.80153    -7.72781
    -7.25418    -7.24788    -6.39691    -6.32302    -6.22905    -1.64652
    -1.19046    -1.14977    -0.99571    -0.93299    -0.92458    -0.90412
    -0.90397    -0.89666    -0.89174    -0.88949    -0.88887    -0.88592
    -0.88289    -0.87242    -0.86717    -0.86374    -0.85970    -0.85476
    -0.84892    -0.84508    -0.83434    -0.82351    -0.81717    -0.81269
    -0.81160    -0.80741    -0.80611    -0.80103    -0.79632    -0.78968
    -0.78528    -0.78278    -0.77715    -0.77611    -0.77231    -0.76917
    -0.76244    -0.76149    -0.76134    -0.75082    -0.74822    -0.74446
    -0.73663    -0.72864    -0.72595    -0.72464    -0.71976    -0.71862
    -0.71473    -0.71001    -0.70892    -0.70573    -0.70113    -0.69086
    -0.68677    -0.68652    -0.68249    -0.67946    -0.67896    -0.67703
    -0.67681    -0.67326    -0.67232    -0.67085    -0.66610    -0.65660
    -0.64564    -0.63531    -0.63529    -0.63084    -0.62965    -0.62788
    -0.62710    -0.62588    -0.62503    -0.61899    -0.60112    -0.59690
    -0.59572    -0.59501    -0.59444    -0.59291    -0.59041    -0.58831
    -0.58412    -0.57990    -0.57900    -0.57326    -0.57082    -0.56919
    -0.56905    -0.56836    -0.56100    -0.55822    -0.55777    -0.55553
    -0.54982    -0.54472    -0.54347    -0.54261    -0.52945    -0.52596
    -0.52512    -0.52400    -0.52376    -0.52313    -0.52276    -0.51766
    -0.51751    -0.51697    -0.51668    -0.51609    -0.51440    -0.51426
    -0.51425    -0.50585    -0.50499    -0.50397    -0.50359    -0.50174
    -0.49846    -0.49684    -0.49543    -0.49429    -0.49422    -0.48997
    -0.48913    -0.48285    -0.48017    -0.47961    -0.47873    -0.47790
    -0.47696    -0.47564    -0.47547    -0.47375    -0.47370    -0.47323
    -0.47307    -0.47038    -0.47011    -0.46868    -0.46849    -0.46840
    -0.46652    -0.46594    -0.46317    -0.46106    -0.45886    -0.45868
    -0.45820    -0.45685    -0.45513    -0.45293    -0.45248    -0.45090
    -0.44552    -0.44452    -0.44403    -0.44399    -0.44183    -0.43904
    -0.43896    -0.43442    -0.43338    -0.43030    -0.42861    -0.42852
    -0.42818    -0.42629    -0.42491    -0.42307    -0.41980    -0.41879
    -0.41878    -0.41532    -0.40751    -0.40721    -0.40548    -0.40498
    -0.40370    -0.39893    -0.39478    -0.38706    -0.38690    -0.38062
    -0.37912    -0.37581    -0.37193    -0.36773    -0.35715    -0.35691
    -0.35605    -0.35163    -0.35119    -0.34651    -0.34145    -0.33821
    -0.32883    -0.32795    -0.32469    -0.32169    -0.31906    -0.30010
    -0.29284    -0.27940    -0.05685    -0.01981    -0.01507     0.00244
     0.00537     0.00770     0.01404     0.02190     0.02261     0.02445
 
  Peak memory usage:   1020 Mb
  
  end of program scf
   
 Time(scf)  user:     1993.2  user+sys:     1993.2  wallclock:     2015.0
  
  start of program sole
  
    SCRF                   solvation energy
  iteration          Hartrees            kcal/mol
     0               0.0000000            0.0000
     1              -0.0170771          -10.7160
     2              -0.0182496          -11.4518
  
  solvation energy not yet converged... 
  
  Peak memory usage:    812 Mb
  
  end of program sole
   
 Time(sole)  user:        0.1  user+sys:        0.1  wallclock:        0.1
  
  start of program ch
  
  gridpoints used for charge fit        15953
    out of a possible maximum of        15953
  
   Electrostatic potential fitting constrained to reproduce
     total charge:                yes
     dipole moment:               no 
     traceless quadrupole moment: no 
     traceless octapole moment:   no 
  
  Atomic charges from electrostatic potential: 
   
 Atom       C1           C2           C3           C4           C5      
 Charge   -0.11295     -0.04489     -0.18433      0.21711      0.09976
   
 Atom       C6           C7           C8           C9           C10     
 Charge   -0.23612     -0.43552     -0.11345     -0.13301     -0.10061
   
 Atom       C11          O12          Si13         C14          C15     
 Charge    0.32814     -0.12772     -0.40765      0.11707      0.07824
   
 Atom       C16          C17          C18          C19          C20     
 Charge    0.23626     -0.18210     -0.42519     -0.26213      0.01382
   
 Atom       Si21         O22          C23          C24          P25     
 Charge    0.23661     -0.27050     -0.15105     -0.12310      0.92316
   
 Atom       O26          O27          C28          C29          C30     
 Charge   -0.60160     -0.51811      0.11531      0.26611      0.25809
   
 Atom       C31          C32          C33          C34          C35     
 Charge    0.05374     -0.03452     -0.09430     -0.11669     -0.07983
   
 Atom       C36          C37          C38          C39          C40     
 Charge   -0.19125     -0.25941     -0.11794     -0.13630      0.00048
   
 Atom       C41          C42          C43          C44          C45     
 Charge   -0.27732     -0.06378     -0.10891      0.09424     -0.05759
   
 Atom       C46          C47          C48          C49          C50     
 Charge   -0.22626     -0.08865     -0.19691     -0.15195     -0.16124
   
 Atom       C51          C52          C53          C54          C55     
 Charge   -0.10271     -0.22803     -0.09713     -0.19173     -0.19243
   
 Atom       C56          C57          C58          C59          C60     
 Charge   -0.15454     -0.07713     -0.19482     -0.12106     -0.15385
   
 Atom       C61          C62          C63          C64          C65     
 Charge   -0.31195     -0.05029     -0.18379     -0.14167     -0.22393
   
 Atom       C66          C67          C68          C69          C70     
 Charge    0.22851     -0.00323     -0.12989     -0.15810     -0.14759
   
 Atom       N71          S72          O73          O74          C75     
 Charge   -0.39582      0.76546     -0.47828     -0.45149      0.60151
   
 Atom       C76          C77          C78          C79          N80     
 Charge   -0.35271      0.36664     -0.57779      0.41083     -0.68124
   
 Atom       N81          C82          C83          C84          C85     
 Charge    0.14936     -0.22338     -0.10597     -0.31054      0.06456
   
 Atom       H86          H87          H88          H89          H90     
 Charge    0.11840      0.15428      0.15237      0.18684      0.14076
   
 Atom       H91          H92          H93          H94          H95     
 Charge    0.12734      0.18525      0.16166      0.14643      0.13981
   
 Atom       H96          H97          H98          H99          H100    
 Charge    0.26787      0.12751      0.10514      0.14176      0.13211
   
 Atom       H101         H102         H103         H104         H105    
 Charge    0.13212      0.10708      0.03292      0.15255      0.09460
   
 Atom       H106         H107         H108         H109         H110    
 Charge    0.07457      0.07039      0.05355      0.15366      0.11825
   
 Atom       H111         H112         H113         H114         H115    
 Charge    0.14274      0.14431      0.14355      0.13693      0.15697
   
 Atom       H116         H117         H118         H119         H120    
 Charge    0.12897      0.13268      0.12817      0.14511      0.12372
   
 Atom       H121         H122         H123         H124         H125    
 Charge    0.14720      0.13661      0.14444      0.16815      0.12942
   
 Atom       H126         H127         H128         H129         H130    
 Charge    0.11777      0.15503      0.14941      0.02026      0.14172
   
 Atom       H131         H132         H133         H134         H135    
 Charge    0.15055      0.20710      0.02402      0.04859      0.22633
   
 Atom       H136         H137         H138         H139         H140    
 Charge    0.08065      0.18790      0.22003      0.16059      0.20209
   
 Atom       H141    
 Charge    0.13074
  
  sum of atomic charges:     0.000000
   
 RMS Error   9.63E-04 hartrees
 
  Peak memory usage:    811 Mb
  
  end of program ch
   
 Time(ch)  user:       15.1  user+sys:       15.1  wallclock:       16.4
  
  start of program post
  
  Writing input files for PBF
  Peak memory usage:    757 Mb
  
  end of program post
   
 Time(post)  user:        0.6  user+sys:        0.6  wallclock:        0.9

  start of program pbf

Pbf Version 4.10

Molecular surface area:      790.01090   [A2]
Reaction field energy:       -19.14625   [kT]
  Peak memory usage: 718 Mb

  end of program pbf

 Time(pbf)  user:       12.7  user+sys:       12.7  wallclock:       12.8
  
  start of program solv
  
   number of surface charges from PBF   12806
   sum of surface charges     -0.00051
   
  nuclear repulsion energy.......   17523.585459011 hartrees
  Peak memory usage:    887 Mb
  
  end of program solv
   
 Time(solv)  user:       29.4  user+sys:       29.4  wallclock:       30.5
  
  start of program scf
  
 Energy computed with NOPS off.
  
       i  u  d  i  g                   
       t  p  i  c  r                                 RMS    maximum
       e  d  i  u  i                       energy  density   DIIS  
       r  t  s  t  d       total energy    change  change    error 
  
etot    1  N  N  1  U   -4710.08351164583           5.7E-06  1.4E-04
etot    2  N  N  1  U   -4710.08349851976 -1.3E-05  0.0E+00  0.0E+00
  
  
 Energy components, in hartrees:
   (A)  Total zero-electron terms....   17526.02131295751
   (B)    Nuclear-nuclear............   17523.58545901068
   (C)    Nuclear-solvent............       2.43585394683
   (E)  Total one-electron terms.....  -41388.87053786813
   (F)    Electron-nuclear...........  -46061.73436644603
   (G)    Electron-solvent...........      -2.47532294291
   (H)    Kinetic....................    4675.33915152082
   (I)  Total two-electron terms.....   19152.76572639086
   (J)    Coulomb....................   19726.12786456620
   (K)    Exchange+Correlation.......    -573.36213817534
   (L)  Electronic energy............  -22236.10481147726  (E+I)
   (N)  Total quantum mech. energy...   -4710.08349851976  (A+L)
   (O)  Gas phase energy.............   -4710.04529675500
   (P)  Solution phase energy........   -4710.06376402171  (Q+R+S)
   (Q)    Total solute energy........   -4710.04402952367  (N-C-G)
   (R)    Total solvent energy.......      -0.01973449804  (C/2+G/2)
   (S)    Solute cavity energy.......       0.00000000000
   (U)  Reorganization energy........       0.00126723133  (Q-O)
   (V)  Solvation energy.............      -0.01846726671  (P-O)
  
 SCFE:  Solution phase energy: DFT(m06-2x)      -4710.06376402171 hartrees
        SCF iterations:   2
  
 
 HOMO energy:    -0.25430
 LUMO energy:    -0.05781
 
  Orbital energies (hartrees): 
   -90.16615   -78.18932   -67.00786   -67.00733   -19.67998   -19.67594
   -19.65205   -19.64227   -19.59641   -19.58920   -14.80981   -14.80427
   -14.78859   -10.65581   -10.62856   -10.62097   -10.62022   -10.60650
   -10.60126   -10.59167   -10.58039   -10.57753   -10.57604   -10.57489
   -10.57146   -10.56887   -10.56819   -10.56812   -10.56671   -10.56426
   -10.56382   -10.56286   -10.56072   -10.55963   -10.55883   -10.55831
   -10.55791   -10.55678   -10.55630   -10.55542   -10.55521   -10.55441
   -10.55326   -10.55236   -10.55169   -10.55135   -10.55109   -10.55081
   -10.54987   -10.54935   -10.54934   -10.54889   -10.54868   -10.54771
   -10.54712   -10.54711   -10.54703   -10.54703   -10.54698   -10.54617
   -10.54543   -10.54536   -10.54515   -10.54487   -10.54437   -10.54428
   -10.54369   -10.54364   -10.54298   -10.54251   -10.54184   -10.54136
   -10.54135   -10.54126   -10.54099   -10.54059   -10.53935   -10.53573
   -10.53525   -10.53468   -10.53213   -10.53090   -10.52808   -10.52665
   -10.52489    -8.47725    -6.96814    -6.39929    -6.39851    -6.39763
    -5.53903    -5.53833    -5.08666    -5.08563    -5.08411    -3.84876
    -3.84848    -3.84838    -3.84833    -3.84775    -3.84746    -1.24139
    -1.21404    -1.17109    -1.12754    -1.10259    -1.09156    -1.07905
    -1.06009    -1.04462    -0.98205    -0.96816    -0.96711    -0.94544
    -0.94395    -0.93990    -0.93841    -0.93600    -0.93356    -0.92065
    -0.91725    -0.91066    -0.89487    -0.88990    -0.88659    -0.87177
    -0.85331    -0.84933    -0.84357    -0.84140    -0.83684    -0.83470
    -0.83309    -0.83229    -0.83214    -0.82995    -0.82865    -0.82794
    -0.82575    -0.82510    -0.82341    -0.82204    -0.82178    -0.81973
    -0.80018    -0.79843    -0.75039    -0.73474    -0.73097    -0.70949
    -0.70595    -0.70098    -0.69581    -0.68905    -0.68800    -0.68155
    -0.67837    -0.67673    -0.67590    -0.67414    -0.67370    -0.67121
    -0.67026    -0.66665    -0.66385    -0.66093    -0.66072    -0.66013
    -0.65790    -0.65648    -0.65595    -0.64563    -0.64204    -0.63368
    -0.62010    -0.60880    -0.60728    -0.60178    -0.59900    -0.59683
    -0.58166    -0.57993    -0.57792    -0.57676    -0.57549    -0.57442
    -0.57203    -0.56512    -0.56428    -0.55851    -0.54898    -0.54836
    -0.54256    -0.54038    -0.53697    -0.53400    -0.52900    -0.52633
    -0.52372    -0.52008    -0.51741    -0.51676    -0.51509    -0.51332
    -0.51153    -0.51026    -0.51021    -0.50505    -0.50186    -0.50159
    -0.49963    -0.49900    -0.49799    -0.49763    -0.49574    -0.49527
    -0.49469    -0.49314    -0.49152    -0.49112    -0.49030    -0.48951
    -0.48419    -0.48326    -0.48215    -0.48099    -0.48085    -0.47913
    -0.47536    -0.47402    -0.47187    -0.47146    -0.46732    -0.46400
    -0.45996    -0.45731    -0.45238    -0.45104    -0.44969    -0.44816
    -0.44512    -0.44405    -0.44125    -0.43910    -0.43458    -0.43276
    -0.42877    -0.42590    -0.42437    -0.42293    -0.42000    -0.41947
    -0.41761    -0.41618    -0.41384    -0.41123    -0.40727    -0.40589
    -0.39987    -0.39826    -0.39710    -0.39303    -0.39258    -0.39166
    -0.38979    -0.38974    -0.38772    -0.38618    -0.38507    -0.38227
    -0.38091    -0.38001    -0.37728    -0.37409    -0.36931    -0.35744
    -0.35425    -0.35159    -0.34881    -0.34572    -0.34204    -0.34195
    -0.34074    -0.33733    -0.33662    -0.33559    -0.33088    -0.32725
    -0.32402    -0.31188    -0.30852    -0.30510    -0.30436    -0.30231
    -0.30161    -0.29704    -0.29466    -0.29281    -0.29181    -0.29090
    -0.28817    -0.28662    -0.28608    -0.28482    -0.28397    -0.27799
    -0.27241    -0.25430    -0.05781    -0.01998    -0.01618     0.00220
     0.00469     0.00743     0.01373     0.02160     0.02226     0.02422
 
  Peak memory usage:   1020 Mb
  
  end of program scf
   
 Time(scf)  user:     2007.4  user+sys:     2007.4  wallclock:     2031.3
  
  start of program sole
  
    SCRF                   solvation energy
  iteration          Hartrees            kcal/mol
     0               0.0000000            0.0000
     1              -0.0170771          -10.7160
     2              -0.0182496          -11.4518
     3              -0.0184673          -11.5884
  
  solvation energy not yet converged... 
  
  Peak memory usage:    812 Mb
  
  end of program sole
   
 Time(sole)  user:        0.1  user+sys:        0.1  wallclock:        0.1
  
  start of program ch
  
  gridpoints used for charge fit        15953
    out of a possible maximum of        15953
  
   Electrostatic potential fitting constrained to reproduce
     total charge:                yes
     dipole moment:               no 
     traceless quadrupole moment: no 
     traceless octapole moment:   no 
  
  Atomic charges from electrostatic potential: 
   
 Atom       C1           C2           C3           C4           C5      
 Charge   -0.11241     -0.04451     -0.18513      0.21708      0.09982
   
 Atom       C6           C7           C8           C9           C10     
 Charge   -0.23582     -0.43526     -0.11418     -0.13272     -0.10018
   
 Atom       C11          O12          Si13         C14          C15     
 Charge    0.32793     -0.12802     -0.40683      0.11692      0.07872
   
 Atom       C16          C17          C18          C19          C20     
 Charge    0.23593     -0.18163     -0.42550     -0.26205      0.01467
   
 Atom       Si21         O22          C23          C24          P25     
 Charge    0.23674     -0.27074     -0.15181     -0.12397      0.92376
   
 Atom       O26          O27          C28          C29          C30     
 Charge   -0.60280     -0.51776      0.11588      0.26699      0.25831
   
 Atom       C31          C32          C33          C34          C35     
 Charge    0.05326     -0.03389     -0.09315     -0.11588     -0.07954
   
 Atom       C36          C37          C38          C39          C40     
 Charge   -0.19136     -0.25859     -0.11710     -0.13621      0.00176
   
 Atom       C41          C42          C43          C44          C45     
 Charge   -0.27796     -0.06381     -0.10846      0.09440     -0.05679
   
 Atom       C46          C47          C48          C49          C50     
 Charge   -0.22614     -0.08968     -0.19770     -0.15242     -0.16179
   
 Atom       C51          C52          C53          C54          C55     
 Charge   -0.10311     -0.22682     -0.09836     -0.19252     -0.19290
   
 Atom       C56          C57          C58          C59          C60     
 Charge   -0.15421     -0.07776     -0.19507     -0.12147     -0.15415
   
 Atom       C61          C62          C63          C64          C65     
 Charge   -0.31203     -0.05133     -0.18430     -0.14414     -0.22325
   
 Atom       C66          C67          C68          C69          C70     
 Charge    0.23155     -0.00114     -0.13202     -0.15965     -0.14529
   
 Atom       N71          S72          O73          O74          C75     
 Charge   -0.39208      0.76969     -0.47953     -0.45588      0.60476
   
 Atom       C76          C77          C78          C79          N80     
 Charge   -0.35326      0.36511     -0.58104      0.41023     -0.67921
   
 Atom       N81          C82          C83          C84          C85     
 Charge    0.14993     -0.22787     -0.10935     -0.31075      0.06411
   
 Atom       H86          H87          H88          H89          H90     
 Charge    0.11828      0.15440      0.15228      0.18652      0.14088
   
 Atom       H91          H92          H93          H94          H95     
 Charge    0.12732      0.18515      0.16170      0.14659      0.14005
   
 Atom       H96          H97          H98          H99          H100    
 Charge    0.26817      0.12735      0.10505      0.14159      0.13184
   
 Atom       H101         H102         H103         H104         H105    
 Charge    0.13185      0.10701      0.03266      0.15252      0.09442
   
 Atom       H106         H107         H108         H109         H110    
 Charge    0.07438      0.07028      0.05303      0.15369      0.11837
   
 Atom       H111         H112         H113         H114         H115    
[...]
 
  Peak memory usage:    811 Mb
  
  end of program ch
   
 Time(ch)  user:       14.7  user+sys:       14.7  wallclock:       15.8
  
  start of program post
  
  Writing input files for PBF
  Peak memory usage:    757 Mb
  
  end of program post
   
 Time(post)  user:        0.6  user+sys:        0.6  wallclock:        0.9

  start of program pbf

Pbf Version 4.10

Molecular surface area:      790.01090   [A2]
Reaction field energy:       -19.22850   [kT]
  Peak memory usage: 718 Mb

  end of program pbf

 Time(pbf)  user:       12.6  user+sys:       12.6  wallclock:       12.7
  
  start of program solv
  
   number of surface charges from PBF   12806
   sum of surface charges     -0.00051
   
  nuclear repulsion energy.......   17523.585459011 hartrees
  Peak memory usage:    887 Mb
  
  end of program solv
   
 Time(solv)  user:       29.1  user+sys:       29.1  wallclock:       29.3
  
  start of program scf
  
 Energy computed with NOPS off.
  
       i  u  d  i  g                   
       t  p  i  c  r                                 RMS    maximum
       e  d  i  u  i                       energy  density   DIIS  
       r  t  s  t  d       total energy    change  change    error 
  
etot    1  N  N  1  U   -4710.08352855115           1.5E-05  3.4E-04
etot    2  N  Y  1  U   -4710.08339782378 -1.3E-04  9.6E-06  5.9E-04
etot    3  N  Y  1  U   -4710.08359241478  1.9E-04  2.9E-07  1.3E-05
etot    4  N  N  1  U   -4710.08359252925  1.1E-07  0.0E+00  0.0E+00
  
  
 Energy components, in hartrees:
   (A)  Total zero-electron terms....   17526.03250213134
   (B)    Nuclear-nuclear............   17523.58545901068
   (C)    Nuclear-solvent............       2.44704312066
   (E)  Total one-electron terms.....  -41389.03698529345
   (F)    Electron-nuclear...........  -46061.89490384394
   (G)    Electron-solvent...........      -2.48669509736
   (H)    Kinetic....................    4675.34461364785
   (I)  Total two-electron terms.....   19152.92089063286
   (J)    Coulomb....................   19726.28350603994
   (K)    Exchange+Correlation.......    -573.36261540709
   (L)  Electronic energy............  -22236.11609466059  (E+I)
   (N)  Total quantum mech. energy...   -4710.08359252925  (A+L)
   (O)  Gas phase energy.............   -4710.04529675500
   (P)  Solution phase energy........   -4710.06376654090  (Q+R+S)
   (Q)    Total solute energy........   -4710.04394055255  (N-C-G)
   (R)    Total solvent energy.......      -0.01982598835  (C/2+G/2)
   (S)    Solute cavity energy.......       0.00000000000
   (U)  Reorganization energy........       0.00135620245  (Q-O)
   (V)  Solvation energy.............      -0.01846978590  (P-O)
  
 SCFE:  Solution phase energy: DFT(m06-2x)      -4710.06376654090 hartrees
        SCF iterations:   4
  
 
 HOMO energy:    -0.25420
 LUMO energy:    -0.05718
 
  Orbital energies (hartrees): 
   -90.16435   -78.18898   -67.00748   -67.00697   -19.67978   -19.67560
   -19.65086   -19.64478   -19.59517   -19.58957   -14.80915   -14.80053
   -14.78604   -10.65310   -10.62639   -10.62037   -10.61999   -10.60807
   -10.60113   -10.59098   -10.58129   -10.57592   -10.57581   -10.57568
   -10.57148   -10.56920   -10.56789   -10.56780   -10.56640   -10.56393
   -10.56305   -10.56291   -10.56159   -10.55957   -10.55947   -10.55821
   -10.55820   -10.55819   -10.55610   -10.55561   -10.55540   -10.55453
   -10.55322   -10.55274   -10.55162   -10.55133   -10.55122   -10.55073
   -10.55005   -10.54955   -10.54942   -10.54913   -10.54864   -10.54753
   -10.54732   -10.54729   -10.54712   -10.54691   -10.54643   -10.54586
   -10.54569   -10.54549   -10.54484   -10.54450   -10.54386   -10.54364
   -10.54359   -10.54330   -10.54325   -10.54273   -10.54174   -10.54143
   -10.54097   -10.54094   -10.54072   -10.54000   -10.53920   -10.53609
   -10.53498   -10.53457   -10.53160   -10.53055   -10.52749   -10.52640
   -10.52444    -8.47556    -6.96779    -6.39759    -6.39682    -6.39593
    -5.53865    -5.53797    -5.08632    -5.08529    -5.08376    -3.84838
    -3.84810    -3.84800    -3.84797    -3.84739    -3.84711    -1.24060
    -1.21372    -1.17079    -1.12720    -1.10247    -1.09120    -1.07783
    -1.05858    -1.04366    -0.98194    -0.96779    -0.96705    -0.94538
    -0.94385    -0.93980    -0.93817    -0.93584    -0.93351    -0.92062
    -0.91723    -0.91060    -0.89416    -0.88978    -0.88677    -0.87122
    -0.85327    -0.84915    -0.84343    -0.84130    -0.83679    -0.83461
    -0.83298    -0.83235    -0.83198    -0.82983    -0.82851    -0.82785
    -0.82564    -0.82505    -0.82329    -0.82196    -0.82149    -0.81963
    -0.80008    -0.79766    -0.74959    -0.73455    -0.73054    -0.70906
    -0.70554    -0.70091    -0.69566    -0.68864    -0.68789    -0.68124
    -0.67819    -0.67666    -0.67576    -0.67397    -0.67344    -0.67113
    -0.67015    -0.66642    -0.66380    -0.66093    -0.66082    -0.66004
    -0.65775    -0.65638    -0.65572    -0.64550    -0.64152    -0.63340
    -0.61993    -0.60832    -0.60709    -0.60164    -0.59860    -0.59642
    -0.58157    -0.57988    -0.57782    -0.57649    -0.57511    -0.57434
    -0.57200    -0.56474    -0.56390    -0.55844    -0.54880    -0.54801
    -0.54245    -0.54001    -0.53679    -0.53352    -0.52886    -0.52613
    -0.52355    -0.51995    -0.51731    -0.51669    -0.51490    -0.51319
    -0.51140    -0.51015    -0.51009    -0.50493    -0.50180    -0.50117
    -0.49952    -0.49874    -0.49788    -0.49741    -0.49563    -0.49514
    -0.49451    -0.49287    -0.49143    -0.49091    -0.49022    -0.48913
    -0.48412    -0.48321    -0.48207    -0.48091    -0.48035    -0.47905
    -0.47515    -0.47379    -0.47177    -0.47139    -0.46726    -0.46454
    -0.45986    -0.45721    -0.45230    -0.45094    -0.44960    -0.44798
    -0.44492    -0.44393    -0.44110    -0.43878    -0.43428    -0.43258
    -0.42862    -0.42580    -0.42426    -0.42275    -0.41985    -0.41906
    -0.41755    -0.41591    -0.41373    -0.41072    -0.40704    -0.40572
    -0.39975    -0.39818    -0.39653    -0.39292    -0.39239    -0.39154
    -0.38968    -0.38959    -0.38750    -0.38601    -0.38495    -0.38199
    -0.38084    -0.37974    -0.37717    -0.37360    -0.36904    -0.35718
    -0.35406    -0.35137    -0.34861    -0.34549    -0.34164    -0.34119
    -0.34050    -0.33705    -0.33629    -0.33538    -0.33083    -0.32687
    -0.32389    -0.31137    -0.30845    -0.30493    -0.30424    -0.30226
    -0.30153    -0.29692    -0.29454    -0.29263    -0.29165    -0.29072
    -0.28805    -0.28648    -0.28582    -0.28467    -0.28384    -0.27756
    -0.27234    -0.25420    -0.05718    -0.01990    -0.01560     0.00229
     0.00502     0.00756     0.01386     0.02175     0.02243     0.02438
 
  Peak memory usage:   1020 Mb
  
  end of program scf
   
 Time(scf)  user:     5954.2  user+sys:     5954.2  wallclock:     6021.9
  
  start of program sole
  
    SCRF                   solvation energy
  iteration          Hartrees            kcal/mol
     0               0.0000000            0.0000
     1              -0.0170771          -10.7160
     2              -0.0182496          -11.4518
     3              -0.0184673          -11.5884
     4              -0.0182617          -11.4594
     5              -0.0184698          -11.5900
  
  solvation energy not yet converged... 
  
  Peak memory usage:    812 Mb
  
  end of program sole
   
 Time(sole)  user:        0.1  user+sys:        0.1  wallclock:        0.1
  
  start of program ch
  
  gridpoints used for charge fit        15953
    out of a possible maximum of        15953
  
   Electrostatic potential fitting constrained to reproduce
     total charge:                yes
     dipole moment:               no 
     traceless quadrupole moment: no 
     traceless octapole moment:   no 
  
  Atomic charges from electrostatic potential: 
   
 Atom       C1           C2           C3           C4           C5      
 Charge   -0.11271     -0.04481     -0.18467      0.21717      0.09993
   
 Atom       C6           C7           C8           C9           C10     
 Charge   -0.23602     -0.43559     -0.11380     -0.13307     -0.10057
   
 Atom       C11          O12          Si13         C14          C15     
 Charge    0.32831     -0.12775     -0.40748      0.11719      0.07848
   
 Atom       C16          C17          C18          C19          C20     
 Charge    0.23617     -0.18195     -0.42534     -0.26213      0.01412
   
 Atom       Si21         O22          C23          C24          P25     
 Charge    0.23663     -0.27071     -0.15131     -0.12349      0.92360
   
 Atom       O26          O27          C28          C29          C30     
 Charge   -0.60213     -0.51807      0.11551      0.26658      0.25836
   
 Atom       C31          C32          C33          C34          C35     
 Charge    0.05356     -0.03417     -0.09388     -0.11621     -0.07968
   
 Atom       C36          C37          C38          C39          C40     
 Charge   -0.19133     -0.25916     -0.11775     -0.13625      0.00111
   
 Atom       C41          C42          C43          C44          C45     
 Charge   -0.27745     -0.06376     -0.10880      0.09443     -0.05725
   
 Atom       C46          C47          C48          C49          C50     
 Charge   -0.22641     -0.08900     -0.19724     -0.15213     -0.16154
   
 Atom       C51          C52          C53          C54          C55     
 Charge   -0.10284     -0.22761     -0.09760     -0.19199     -0.19284
   
 Atom       C56          C57          C58          C59          C60     
 Charge   -0.15432     -0.07748     -0.19495     -0.12129     -0.15397
   
 Atom       C61          C62          C63          C64          C65     
 Charge   -0.31211     -0.05069     -0.18396     -0.14260     -0.22389
   
 Atom       C66          C67          C68          C69          C70     
 Charge    0.22996     -0.00271     -0.13065     -0.15865     -0.14704
   
 Atom       N71          S72          O73          O74          C75     
 Charge   -0.39456      0.76733     -0.47919     -0.45319      0.60318
   
 Atom       C76          C77          C78          C79          N80     
 Charge   -0.35305      0.36649     -0.57938      0.41096     -0.68129
   
 Atom       N81          C82          C83          C84          C85     
 Charge    0.14941     -0.22467     -0.10731     -0.31077      0.06459
   
 Atom       H86          H87          H88          H89          H90     
 Charge    0.11828      0.15438      0.15233      0.18673      0.14088
   
 Atom       H91          H92          H93          H94          H95     
 Charge    0.12730      0.18519      0.16170      0.14654      0.13998
   
 Atom       H96          H97          H98          H99          H100    
 Charge    0.26796      0.12735      0.10504      0.14166      0.13193
   
 Atom       H101         H102         H103         H104         H105    
 Charge    0.13206      0.10701      0.03279      0.15249      0.09448
   
 Atom       H106         H107         H108         H109         H110    
 Charge    0.07444      0.07028      0.05329      0.15373      0.11836
   
 Atom       H111         H112         H113         H114         H115    
 Charge    0.14283      0.14439      0.14363      0.13696      0.15684
   
 Atom       H116         H117         H118         H119         H120    
 Charge    0.12903      0.13264      0.12835      0.14507      0.12382
   
 Atom       H121         H122         H123         H124         H125    
 Charge    0.14725      0.13667      0.14448      0.16822      0.12957
   
 Atom       H126         H127         H128         H129         H130    
 Charge    0.11768      0.15533      0.14930      0.02037      0.14184
   
 Atom       H131         H132         H133         H134         H135    
 Charge    0.15078      0.20681      0.02381      0.04836      0.22677
   
 Atom       H136         H137         H138         H139         H140    
 Charge    0.08071      0.18821      0.22054      0.16122      0.20243
   
 Atom       H141    
 Charge    0.13105
  
  sum of atomic charges:     0.000000
   
 RMS Error   9.63E-04 hartrees
 
  Peak memory usage:    811 Mb
  
  end of program ch
   
 Time(ch)  user:       15.0  user+sys:       15.0  wallclock:       16.3
  
  start of program post
  
  Writing input files for PBF
  Peak memory usage:    757 Mb
  
  end of program post
   
 Time(post)  user:        0.6  user+sys:        0.6  wallclock:        0.8

  start of program pbf

Pbf Version 4.10

Molecular surface area:      790.01090   [A2]
Reaction field energy:       -19.13237   [kT]
  Peak memory usage: 718 Mb

  end of program pbf

 Time(pbf)  user:       12.6  user+sys:       12.7  wallclock:       12.7
  
  start of program solv
  
   number of surface charges from PBF   12806
   sum of surface charges     -0.00051
   
  nuclear repulsion energy.......   17523.585459011 hartrees
  Peak memory usage:    887 Mb
  
  end of program solv
   
 Time(solv)  user:       29.5  user+sys:       29.5  wallclock:       30.9
  
  start of program scf
  
 Energy computed with NOPS off.
  
       i  u  d  i  g                   
       t  p  i  c  r                                 RMS    maximum
       e  d  i  u  i                       energy  density   DIIS  
       r  t  s  t  d       total energy    change  change    error 
  
etot    1  N  N  1  U   -4710.08351179181           8.1E-07  2.0E-05
etot    2  N  N  1  U   -4710.08351185937  6.8E-08  0.0E+00  0.0E+00
  
  
 Energy components, in hartrees:
   (A)  Total zero-electron terms....   17526.01704760026
   (B)    Nuclear-nuclear............   17523.58545901068
   (C)    Nuclear-solvent............       2.43158858959
   (E)  Total one-electron terms.....  -41389.00691444903
   (F)    Electron-nuclear...........  -46061.88014217121
   (G)    Electron-solvent...........      -2.47113254805
   (H)    Kinetic....................    4675.34436027024
   (I)  Total two-electron terms.....   19152.90635498939
   (J)    Coulomb....................   19726.26891940208
   (K)    Exchange+Correlation.......    -573.36256441269
   (L)  Electronic energy............  -22236.10055945964  (E+I)
   (N)  Total quantum mech. energy...   -4710.08351185937  (A+L)
   (O)  Gas phase energy.............   -4710.04529675500
   (P)  Solution phase energy........   -4710.06373988014  (Q+R+S)
   (Q)    Total solute energy........   -4710.04396790090  (N-C-G)
   (R)    Total solvent energy.......      -0.01977197923  (C/2+G/2)
   (S)    Solute cavity energy.......       0.00000000000
   (U)  Reorganization energy........       0.00132885410  (Q-O)
   (V)  Solvation energy.............      -0.01844312514  (P-O)
  
 SCFE:  Solution phase energy: DFT(m06-2x)      -4710.06373988014 hartrees
        SCF iterations:   2
  
 
 HOMO energy:    -0.25418
 LUMO energy:    -0.05723
 
  Orbital energies (hartrees): 
   -90.16441   -78.18896   -67.00747   -67.00698   -19.67971   -19.67560
   -19.65116   -19.64453   -19.59516   -19.58955   -14.80915   -14.80065
   -14.78636   -10.65329   -10.62649   -10.62037   -10.61995   -10.60793
   -10.60116   -10.59105   -10.58110   -10.57583   -10.57578   -10.57570
   -10.57146   -10.56926   -10.56789   -10.56782   -10.56649   -10.56393
   -10.56302   -10.56296   -10.56154   -10.55955   -10.55950   -10.55820
   -10.55818   -10.55813   -10.55612   -10.55559   -10.55538   -10.55450
   -10.55319   -10.55269   -10.55162   -10.55134   -10.55118   -10.55072
   -10.55001   -10.54951   -10.54938   -10.54908   -10.54862   -10.54753
   -10.54726   -10.54725   -10.54706   -10.54692   -10.54649   -10.54588
   -10.54559   -10.54546   -10.54487   -10.54452   -10.54391   -10.54361
   -10.54357   -10.54332   -10.54325   -10.54268   -10.54170   -10.54142
   -10.54098   -10.54093   -10.54070   -10.54000   -10.53925   -10.53603
   -10.53499   -10.53455   -10.53166   -10.53054   -10.52751   -10.52636
   -10.52446    -8.47562    -6.96777    -6.39765    -6.39688    -6.39599
    -5.53865    -5.53799    -5.08630    -5.08527    -5.08374    -3.84838
    -3.84810    -3.84800    -3.84799    -3.84741    -3.84712    -1.24064
    -1.21370    -1.17076    -1.12722    -1.10246    -1.09119    -1.07793
    -1.05864    -1.04368    -0.98193    -0.96783    -0.96705    -0.94536
    -0.94384    -0.93978    -0.93815    -0.93582    -0.93351    -0.92060
    -0.91717    -0.91058    -0.89419    -0.88977    -0.88677    -0.87125
    -0.85327    -0.84918    -0.84342    -0.84130    -0.83677    -0.83461
    -0.83296    -0.83235    -0.83197    -0.82981    -0.82849    -0.82784
    -0.82563    -0.82504    -0.82328    -0.82196    -0.82148    -0.81964
    -0.80006    -0.79769    -0.74962    -0.73453    -0.73053    -0.70907
    -0.70555    -0.70090    -0.69566    -0.68867    -0.68788    -0.68126
    -0.67818    -0.67665    -0.67576    -0.67398    -0.67345    -0.67111
    -0.67013    -0.66640    -0.66380    -0.66091    -0.66083    -0.66004
    -0.65774    -0.65639    -0.65571    -0.64550    -0.64154    -0.63341
    -0.61992    -0.60834    -0.60709    -0.60163    -0.59862    -0.59643
    -0.58156    -0.57987    -0.57780    -0.57649    -0.57512    -0.57433
    -0.57199    -0.56474    -0.56389    -0.55843    -0.54879    -0.54802
    -0.54244    -0.54003    -0.53679    -0.53355    -0.52886    -0.52614
    -0.52354    -0.51995    -0.51729    -0.51668    -0.51489    -0.51318
    -0.51139    -0.51014    -0.51009    -0.50493    -0.50179    -0.50120
    -0.49952    -0.49874    -0.49787    -0.49740    -0.49562    -0.49513
    -0.49453    -0.49287    -0.49142    -0.49091    -0.49022    -0.48914
    -0.48408    -0.48319    -0.48206    -0.48090    -0.48038    -0.47903
    -0.47514    -0.47378    -0.47177    -0.47139    -0.46726    -0.46452
    -0.45984    -0.45720    -0.45228    -0.45093    -0.44959    -0.44798
    -0.44491    -0.44393    -0.44112    -0.43878    -0.43429    -0.43257
    -0.42861    -0.42578    -0.42425    -0.42274    -0.41985    -0.41908
    -0.41754    -0.41591    -0.41373    -0.41075    -0.40706    -0.40572
    -0.39975    -0.39817    -0.39658    -0.39290    -0.39237    -0.39153
    -0.38968    -0.38957    -0.38749    -0.38599    -0.38493    -0.38198
    -0.38084    -0.37975    -0.37716    -0.37360    -0.36903    -0.35716
    -0.35405    -0.35137    -0.34859    -0.34549    -0.34167    -0.34121
    -0.34050    -0.33704    -0.33628    -0.33538    -0.33084    -0.32686
    -0.32388    -0.31141    -0.30846    -0.30492    -0.30424    -0.30225
    -0.30152    -0.29690    -0.29453    -0.29262    -0.29164    -0.29071
    -0.28805    -0.28647    -0.28581    -0.28466    -0.28384    -0.27759
    -0.27232    -0.25418    -0.05723    -0.01989    -0.01560     0.00230
     0.00504     0.00757     0.01386     0.02175     0.02242     0.02436
 
  Peak memory usage:   1020 Mb
  
  end of program scf
   
 Time(scf)  user:     1992.8  user+sys:     1992.8  wallclock:     2017.0
  
  start of program sole
  
    SCRF                   solvation energy
  iteration          Hartrees            kcal/mol
     0               0.0000000            0.0000
     1              -0.0170771          -10.7160
     2              -0.0182496          -11.4518
     3              -0.0184673          -11.5884
     4              -0.0182617          -11.4594
     5              -0.0184698          -11.5900
     6              -0.0184431          -11.5732
  
  stopping: solvation energy converged
  
  iterations:   6    sfinal:    -11.5732 kcal/mol
  
  Peak memory usage:    812 Mb
  
  end of program sole
   
 Time(sole)  user:        0.1  user+sys:        0.1  wallclock:        0.1
  
  start of program post
  
  Writing input files for PBF
  Peak memory usage:    757 Mb
  
  end of program post
   
 Time(post)  user:        0.6  user+sys:        0.6  wallclock:        0.9

 Total cpu seconds     user:   43458.379   user+sys:   43458.379
  
 Total elapsed time:    44269 seconds

Job Toru-SiPh3-Type-I-E-9-chkp-2-scan-TS.mol-SPE completed on tethys at Sat Feb 18 05:00:46 2017
