Job Type-I-Z-sulfonyl-bind-5-unrestrained-SPE started on tethys at Fri Mar  3 14:00:35 2017
jobid: tethys-0-58b97700

  +--------------------------------------------------------------------+
  |  Jaguar version 9.5, release  11                                   |
  |                                                                    |
  |  Copyright Schrodinger, Inc.                                       |
  |  All Rights Reserved.                                              |
  |                                                                    |
  |  The following have contributed to Jaguar (listed alphabetically): |
  |  Mike Beachy, Art Bochevarov, Dale Braden, Yixiang Cao,            |
  |  Chris Cortis, Rich Friesner, Bill Goddard, Hod Greeley,           |
  |  Tom Hughes, Leif Jacobson, Jean-Marc Langlois,                    |
  |  Daniel Mainz, Rob Murphy, Dean Philipp, Tom Pollard,              |
  |  Murco Ringnalda, Mark Watson, Haoyu Yu.                           |
  |                                                                    |
  |  Use of this program should be acknowledged in publications as:    |
  |                                                                    |
  |  Jaguar, version 9.5, Schrodinger, Inc., New York, NY, 2017.       |
  |                                                                    |
  |  A. D. Bochevarov, E. Harder, T. F. Hughes, J. R. Greenwood,       |
  |  D. A. Braden, D. M. Philipp, D. Rinaldo, M. D. Halls,             |
  |  J. Zhang, R. A. Friesner, "Jaguar: A High-Performance Quantum     |
  |  Chemistry Software Program with Strengths in Life and Materials   |
  |  Sciences", Int. J. Quantum Chem., 2013, 113(18), 2110-2142.       |
  +--------------------------------------------------------------------+
  
  start of program pre
  
  Job name: Type-I-Z-sulfonyl-bind-5-unrestrained-SPE
  Executables used: /usr/local/shared/schrodinger/current/jaguar-v9.5/bin/Linux-x86_64
  Temporary files : /scratch/ab2144/Type-I-Z-sulfonyl-bind-5-unrestrained-SPE
  Maestro file (input):  Type-I-Z-sulfonyl-bind-5-unrestrained-SPE.mae
  Maestro file (output): Type-I-Z-sulfonyl-bind-5-unrestrained-SPE.01.mae
  
  basis set:             6-31g**                         
  net molecular charge:    0
  multiplicity:            1
  
  keygrid settings 
    wispc.....   7.500E-01
    ldens.....   0
    denspc....   7.500E-01
  
   grid     daf set  nls  grid set  Q type
  ------    -------  ---  --------  ------
  coarse       1      1       1        1
  medium       2      2       2        1
  fine         3      2       3        0
  ultrafine    4      2       4        1
  charge       0      1      -1        1
  gradient     5      2       4        1
  density      0      1       0        0
  DFT-fine     0      1     -13        0
  DFT-med.     0      1     -13        0
  DFT-grad     0      1     -13        0
  DFT-der2     0      1       0        0
  DFT-cphf     0      1       0        0
  LMP2-enrg    4      2       4        1
  LMP2-grad    5      2       2        1
  DFT-cphf2    0      1       0        0
  PBF-dens     0      1       0        0
  plotting     0      1       0        0
  Rel-grad     0      1     -17        0
  
  idftgrdm  100
  ndftgrdm   50    0    0
  idftgrdf  111
  ndftgrdf   85    0    0
  idftgrdg  111
  ndftgrdg   80    3    0
  idftgrdu  433
  ndftgrdu  105    0    0
  idftgrdd  433
  ndftgrdd  105    0    0
  idftgrdc  433
  ndftgrdc   26    0    0
  idftgrdp  433
  ndftgrdp   18    0    0
  
  number of basis functions....         1680
  
 Input geometry:
                                   angstroms
  atom               x                 y                 z
  C1           -3.0136000000      1.9886000000     -0.6056000000 
  C2           -5.4133000000      0.5843000000     -0.0421000000 
  C3           -4.1465000000     -0.1640000000     -0.1759000000 
  C4           -2.9966000000      0.4975000000     -0.4271000000 
  H5           -6.3328000000      0.0532000000      0.1690000000 
  C6            0.5921000000      4.3021000000     -1.1196000000 
  C7            0.4649000000      3.4664000000     -0.0793000000 
  C8           -0.7166000000      2.5682000000     -0.0044000000 
  C9           -1.7362000000      2.7074000000     -0.8747000000 
  H10           1.4522000000      4.9566000000     -1.1947000000 
  C11          -4.1748000000      2.6650000000     -0.4126000000 
  C12          -5.4305000000      1.9162000000     -0.1520000000 
  C13          -6.6918000000      2.6693000000     -0.0003000000 
  C14          -6.6906000000      4.0049000000     -0.0487000000 
  C15          -5.4388000000      4.7660000000     -0.2382000000 
  C16          -4.2616000000      4.1506000000     -0.4004000000 
  H17          -7.6270000000      2.1445000000      0.1553000000 
  H18          -7.6219000000      4.5443000000      0.0675000000 
  H19          -5.4780000000      5.8478000000     -0.2329000000 
  H20          -3.3769000000      4.7641000000     -0.5007000000 
  C21          -0.4420000000      4.3470000000     -2.1750000000 
  C22          -1.5594000000      3.5906000000     -2.0659000000 
  C23          -2.5557000000      3.6079000000     -3.1702000000 
  C24          -2.3661000000      4.3906000000     -4.2387000000 
  C25          -1.1613000000      5.2372000000     -4.3343000000 
  C26          -0.2471000000      5.2159000000     -3.3583000000 
  H27          -3.4360000000      2.9802000000     -3.1284000000 
  H28          -3.0929000000      4.3991000000     -5.0407000000 
  H29          -1.0165000000      5.8700000000     -5.2004000000 
  H30           0.6385000000      5.8338000000     -3.4396000000 
  Si31         -4.1697000000     -2.0065000000      0.1417000000 
  Si32          1.7282000000      3.4883000000      1.2954000000 
  C33          -2.5398000000     -2.8614000000      4.4604000000 
  C34          -2.6116000000     -1.6023000000      4.0148000000 
  C35          -3.1398000000     -1.3240000000      2.6633000000 
  C36          -3.5220000000     -2.3341000000      1.8617000000 
  C37          -3.4655000000     -3.7251000000      2.3750000000 
  C38          -2.9979000000     -3.9736000000      3.6043000000 
  H39          -2.1506000000     -3.0671000000      5.4490000000 
  H40          -2.2793000000     -0.7844000000      4.6410000000 
  H41          -3.1925000000     -0.2950000000      2.3359000000 
  H42          -3.8111000000     -4.5463000000      1.7596000000 
  H43          -2.9555000000     -4.9898000000      3.9741000000 
  C44          -8.5946000000     -3.5425000000     -0.1681000000 
  C45          -7.9724000000     -3.0674000000     -1.2525000000 
  C46          -6.5795000000     -2.5839000000     -1.1553000000 
  C47          -5.9236000000     -2.6298000000      0.0172000000 
  C48          -6.6284000000     -3.1413000000      1.2201000000 
  C49          -7.8914000000     -3.5760000000      1.1291000000 
  H50          -9.6153000000     -3.8959000000     -0.2374000000 
  H51          -8.4878000000     -3.0347000000     -2.2036000000 
  H52          -6.1099000000     -2.1868000000     -2.0429000000 
  H53          -6.1408000000     -3.1508000000      2.1844000000 
  H54          -8.4040000000     -3.9439000000      2.0086000000 
  C55          -1.6046000000     -4.1671000000     -3.1458000000 
  C56          -2.4814000000     -3.2176000000     -3.4904000000 
  C57          -3.2760000000     -2.5305000000     -2.4512000000 
  C58          -3.1314000000     -2.8585000000     -1.1553000000 
  C59          -2.1273000000     -3.8855000000     -0.7793000000 
  C60          -1.4132000000     -4.5109000000     -1.7232000000 
  H61          -1.0212000000     -4.6710000000     -3.9054000000 
  H62          -2.6124000000     -2.9513000000     -4.5312000000 
  H63          -3.9635000000     -1.7529000000     -2.7556000000 
  H64          -1.9519000000     -4.1367000000      0.2539000000 
  H65          -0.6807000000     -5.2576000000     -1.4443000000 
  C66           3.1238000000      7.9197000000      1.9306000000 
  C67           4.0259000000      6.9319000000      1.9500000000 
  C68           3.5970000000      5.5316000000      1.7510000000 
  C69           2.2986000000      5.2417000000      1.5583000000 
  C70           1.3056000000      6.3441000000      1.5274000000 
  C71           1.6977000000      7.6115000000      1.7051000000 
  H72           3.4370000000      8.9456000000      2.0755000000 
  H73           5.0724000000      7.1557000000      2.1116000000 
  H74           4.3488000000      4.7559000000      1.7697000000 
  H75           0.2601000000      6.1333000000      1.3426000000 
  H76           0.9719000000      8.4139000000      1.6765000000 
  C77           5.4165000000      0.8582000000      0.0892000000 
  C78           5.2198000000      1.1805000000      1.3724000000 
  C79           4.0628000000      2.0156000000      1.7563000000 
  C80           3.1785000000      2.4180000000      0.8270000000 
  C81           3.4049000000      2.0592000000     -0.5930000000 
  C82           4.4728000000      1.3325000000     -0.9420000000 
  H83           6.2655000000      0.2509000000     -0.1959000000 
  H84           5.9101000000      0.8353000000      2.1312000000 
  H85           3.9418000000      2.2957000000      2.7952000000 
  H86           2.7224000000      2.3963000000     -1.3605000000 
  H87           4.6441000000      1.0893000000     -1.9816000000 
  C88          -0.4944000000      1.9002000000      5.1095000000 
  C89          -0.7493000000      3.1290000000      4.6474000000 
  C90          -0.0289000000      3.6390000000      3.4624000000 
  C91           0.9034000000      2.8841000000      2.8559000000 
  C92           1.1753000000      1.5194000000      3.3720000000 
  C93           0.5094000000      1.0542000000      4.4363000000 
  H94          -1.0279000000      1.5211000000      5.9715000000 
  H95          -1.4912000000      3.7489000000      5.1337000000 
  H96          -0.2846000000      4.6189000000      3.0869000000 
  H97           1.8799000000      0.8746000000      2.8689000000 
  H98           0.6925000000      0.0520000000      4.7986000000 
  O99          -1.8432000000     -0.2201000000     -0.6351000000 
  O100         -0.7652000000      1.5844000000      0.9492000000 
  P101         -0.5588000000      0.0917000000      0.3256000000 
  O102         -0.4474000000     -0.8540000000      1.4826000000 
  N103          3.7856000000     -2.0784000000     -0.2702000000 
  H104          3.3902000000     -1.5002000000     -1.0355000000 
  C105          2.9697000000     -2.1969000000      0.8335000000 
  C106          4.1433000000     -2.7942000000      4.9090000000 
  C107          4.9884000000     -3.2459000000      3.8915000000 
  C108          4.6362000000     -3.0900000000      2.5549000000 
  C109          3.4249000000     -2.4631000000      2.2118000000 
  C110          2.5781000000     -2.0147000000      3.2445000000 
  C111          2.9375000000     -2.1775000000      4.5816000000 
  H112          4.4295000000     -2.9173000000      5.9494000000 
  H113          5.9350000000     -3.7163000000      4.1392000000 
  H114          5.3269000000     -3.4279000000      1.7948000000 
  H115          1.6469000000     -1.5197000000      2.9903000000 
  H116          2.2782000000     -1.8155000000      5.3642000000 
  H117          2.2205000000     -1.4087000000      0.7825000000 
  N118          0.7351000000      0.1767000000     -0.6640000000 
  S119          0.9866000000     -0.6115000000     -2.0031000000 
  O120          0.2676000000     -1.8891000000     -2.1478000000 
  O121          2.4452000000     -0.6478000000     -2.2819000000 
  C122          0.3443000000      0.4696000000     -3.3869000000 
  F123         -0.9787000000      0.6391000000     -3.2766000000 
  F124          0.9330000000      1.6700000000     -3.3527000000 
  F125          0.6075000000     -0.1085000000     -4.5634000000 
  C126          1.4976000000     -3.6264000000      0.4311000000 
  C127          2.0303000000     -4.9109000000      0.7737000000 
  C128          1.4616000000     -5.3066000000      1.9704000000 
  C129          0.5277000000     -4.3080000000      2.3270000000 
  N130          0.5054000000     -3.3633000000      1.3868000000 
  H131          1.3173000000     -3.2684000000     -0.5769000000 
  H132          2.7919000000     -5.4203000000      0.2042000000 
  H133          1.6805000000     -6.1950000000      2.5449000000 
  H134         -0.0969000000     -4.2391000000      3.2067000000 
  H135         -0.0220000000     -2.4661000000      1.4208000000 
  S136          5.0651000000     -3.0862000000     -0.8211000000 
  O137          6.3187000000     -2.6969000000     -0.1823000000 
  O138          4.6313000000     -4.4893000000     -0.7497000000 
  C139          5.0693000000     -1.7405000000     -5.1181000000 
  C140          5.5913000000     -0.9759000000     -4.0715000000 
  N141          5.5946000000     -1.3917000000     -2.8017000000 
  C142          5.0612000000     -2.5795000000     -2.5636000000 
  C143          4.5117000000     -3.4372000000     -3.5116000000 
  C144          4.5248000000     -2.9910000000     -4.8336000000 
  H145          5.0887000000     -1.3564000000     -6.1325000000 
  H146          6.0209000000      0.0052000000     -4.2558000000 
  H147          4.0972000000     -4.3945000000     -3.2213000000 
  H148          4.1099000000     -3.6087000000     -5.6237000000 
   
  principal moments of inertia:
        amu*angstrom^2:    21265.04315    25061.13695    30729.54023
                g*cm^2: 3.53114305E-36 4.16149918E-36 5.10275957E-36
   
  rotational constants:
               cm^(-1):      0.00079274      0.00067266      0.00054858
                   GHz:      0.02376572      0.02016585      0.01644603
   
  Molecular weight:    1308.28 amu
   
  Stoichiometry: Si2C73PN4H56S2O7F3
[running at reduced cpu priority]
  Molecular Point Group: C1      
  Point Group used: C1
  
  nuclear repulsion energy.......   20909.118374154 hartrees
 
 Non-default options chosen:
   SCF calculation type: DFT(m06-2x)                 
   DFT=M06-2X
   Solvation energy will be computed using PBF
     -solute cavity energy will not be included
     -surface area terms will not be included
   Highest accuracy cutoffs used in SCF
   Solvent: other                                                           
   Internal dielectric constant:    1.000
   Continuum dielectric constant:   2.380
   Solvent probe molecule radius:   2.760
  
 Temporary integer options set:
     73=  2
  
  atom       vdw   vdw2    cov     mass  grid  daf  charge   basis
  C1        1.949  1.900  0.770   12.000    Y    Y      Y    6-31g**
  C2        1.949  1.900  0.770   12.000    Y    Y      Y    6-31g**
  C3        1.949  1.900  0.770   12.000    Y    Y      Y    6-31g**
  C4        1.949  1.900  0.770   12.000    Y    Y      Y    6-31g**
  H5        1.597  1.150  0.320    1.008    Y    Y      Y    6-31g**
  C6        1.949  1.900  0.770   12.000    Y    Y      Y    6-31g**
  C7        1.949  1.900  0.770   12.000    Y    Y      Y    6-31g**
  C8        1.949  1.900  0.770   12.000    Y    Y      Y    6-31g**
  C9        1.949  1.900  0.770   12.000    Y    Y      Y    6-31g**
  H10       1.597  1.150  0.320    1.008    Y    Y      Y    6-31g**
  C11       1.949  1.900  0.770   12.000    Y    Y      Y    6-31g**
  C12       1.949  1.900  0.770   12.000    Y    Y      Y    6-31g**
  C13       1.949  1.900  0.770   12.000    Y    Y      Y    6-31g**
  C14       1.949  1.900  0.770   12.000    Y    Y      Y    6-31g**
  C15       1.949  1.900  0.770   12.000    Y    Y      Y    6-31g**
  C16       1.949  1.900  0.770   12.000    Y    Y      Y    6-31g**
  H17       1.597  1.150  0.320    1.008    Y    Y      Y    6-31g**
  H18       1.597  1.150  0.320    1.008    Y    Y      Y    6-31g**
  H19       1.597  1.150  0.320    1.008    Y    Y      Y    6-31g**
  H20       1.597  1.150  0.320    1.008    Y    Y      Y    6-31g**
  C21       1.949  1.900  0.770   12.000    Y    Y      Y    6-31g**
  C22       1.949  1.900  0.770   12.000    Y    Y      Y    6-31g**
  C23       1.949  1.900  0.770   12.000    Y    Y      Y    6-31g**
  C24       1.949  1.900  0.770   12.000    Y    Y      Y    6-31g**
  C25       1.949  1.900  0.770   12.000    Y    Y      Y    6-31g**
  C26       1.949  1.900  0.770   12.000    Y    Y      Y    6-31g**
  H27       1.597  1.150  0.320    1.008    Y    Y      Y    6-31g**
  H28       1.597  1.150  0.320    1.008    Y    Y      Y    6-31g**
  H29       1.597  1.150  0.320    1.008    Y    Y      Y    6-31g**
  H30       1.597  1.150  0.320    1.008    Y    Y      Y    6-31g**
  Si31      2.217  2.147  1.110   27.977    Y    Y      Y    6-31g**
  Si32      2.217  2.147  1.110   27.977    Y    Y      Y    6-31g**
  C33       1.949  1.900  0.770   12.000    Y    Y      Y    6-31g**
  C34       1.949  1.900  0.770   12.000    Y    Y      Y    6-31g**
  C35       1.949  1.900  0.770   12.000    Y    Y      Y    6-31g**
  C36       1.949  1.900  0.770   12.000    Y    Y      Y    6-31g**
  C37       1.949  1.900  0.770   12.000    Y    Y      Y    6-31g**
  C38       1.949  1.900  0.770   12.000    Y    Y      Y    6-31g**
  H39       1.597  1.150  0.320    1.008    Y    Y      Y    6-31g**
  H40       1.597  1.150  0.320    1.008    Y    Y      Y    6-31g**
  H41       1.597  1.150  0.320    1.008    Y    Y      Y    6-31g**
  H42       1.597  1.150  0.320    1.008    Y    Y      Y    6-31g**
  H43       1.597  1.150  0.320    1.008    Y    Y      Y    6-31g**
  C44       1.949  1.900  0.770   12.000    Y    Y      Y    6-31g**
  C45       1.949  1.900  0.770   12.000    Y    Y      Y    6-31g**
  C46       1.949  1.900  0.770   12.000    Y    Y      Y    6-31g**
  C47       1.949  1.900  0.770   12.000    Y    Y      Y    6-31g**
  C48       1.949  1.900  0.770   12.000    Y    Y      Y    6-31g**
  C49       1.949  1.900  0.770   12.000    Y    Y      Y    6-31g**
  H50       1.597  1.150  0.320    1.008    Y    Y      Y    6-31g**
  H51       1.597  1.150  0.320    1.008    Y    Y      Y    6-31g**
  H52       1.597  1.150  0.320    1.008    Y    Y      Y    6-31g**
  H53       1.597  1.150  0.320    1.008    Y    Y      Y    6-31g**
  H54       1.597  1.150  0.320    1.008    Y    Y      Y    6-31g**
  C55       1.949  1.900  0.770   12.000    Y    Y      Y    6-31g**
  C56       1.949  1.900  0.770   12.000    Y    Y      Y    6-31g**
  C57       1.949  1.900  0.770   12.000    Y    Y      Y    6-31g**
  C58       1.949  1.900  0.770   12.000    Y    Y      Y    6-31g**
  C59       1.949  1.900  0.770   12.000    Y    Y      Y    6-31g**
  C60       1.949  1.900  0.770   12.000    Y    Y      Y    6-31g**
  H61       1.597  1.150  0.320    1.008    Y    Y      Y    6-31g**
  H62       1.597  1.150  0.320    1.008    Y    Y      Y    6-31g**
  H63       1.597  1.150  0.320    1.008    Y    Y      Y    6-31g**
  H64       1.597  1.150  0.320    1.008    Y    Y      Y    6-31g**
  H65       1.597  1.150  0.320    1.008    Y    Y      Y    6-31g**
  C66       1.949  1.900  0.770   12.000    Y    Y      Y    6-31g**
  C67       1.949  1.900  0.770   12.000    Y    Y      Y    6-31g**
  C68       1.949  1.900  0.770   12.000    Y    Y      Y    6-31g**
  C69       1.949  1.900  0.770   12.000    Y    Y      Y    6-31g**
  C70       1.949  1.900  0.770   12.000    Y    Y      Y    6-31g**
  C71       1.949  1.900  0.770   12.000    Y    Y      Y    6-31g**
  H72       1.597  1.150  0.320    1.008    Y    Y      Y    6-31g**
  H73       1.597  1.150  0.320    1.008    Y    Y      Y    6-31g**
  H74       1.597  1.150  0.320    1.008    Y    Y      Y    6-31g**
  H75       1.597  1.150  0.320    1.008    Y    Y      Y    6-31g**
  H76       1.597  1.150  0.320    1.008    Y    Y      Y    6-31g**
  C77       1.949  1.900  0.770   12.000    Y    Y      Y    6-31g**
  C78       1.949  1.900  0.770   12.000    Y    Y      Y    6-31g**
  C79       1.949  1.900  0.770   12.000    Y    Y      Y    6-31g**
  C80       1.949  1.900  0.770   12.000    Y    Y      Y    6-31g**
  C81       1.949  1.900  0.770   12.000    Y    Y      Y    6-31g**
  C82       1.949  1.900  0.770   12.000    Y    Y      Y    6-31g**
  H83       1.597  1.150  0.320    1.008    Y    Y      Y    6-31g**
  H84       1.597  1.150  0.320    1.008    Y    Y      Y    6-31g**
  H85       1.597  1.150  0.320    1.008    Y    Y      Y    6-31g**
  H86       1.597  1.150  0.320    1.008    Y    Y      Y    6-31g**
  H87       1.597  1.150  0.320    1.008    Y    Y      Y    6-31g**
  C88       1.949  1.900  0.770   12.000    Y    Y      Y    6-31g**
  C89       1.949  1.900  0.770   12.000    Y    Y      Y    6-31g**
  C90       1.949  1.900  0.770   12.000    Y    Y      Y    6-31g**
  C91       1.949  1.900  0.770   12.000    Y    Y      Y    6-31g**
  C92       1.949  1.900  0.770   12.000    Y    Y      Y    6-31g**
  C93       1.949  1.900  0.770   12.000    Y    Y      Y    6-31g**
  H94       1.597  1.150  0.320    1.008    Y    Y      Y    6-31g**
  H95       1.597  1.150  0.320    1.008    Y    Y      Y    6-31g**
  H96       1.597  1.150  0.320    1.008    Y    Y      Y    6-31g**
  H97       1.597  1.150  0.320    1.008    Y    Y      Y    6-31g**
  H98       1.597  1.150  0.320    1.008    Y    Y      Y    6-31g**
  O99       1.702  1.600  0.730   15.995    Y    Y      Y    6-31g**
  O100      1.702  1.600  0.730   15.995    Y    Y      Y    6-31g**
  P101      2.147  2.074  1.060   30.974    Y    Y      Y    6-31g**
  O102      1.702  1.600  0.730   15.995    Y    Y      Y    6-31g**
  N103      1.831  1.600  0.750   14.003    Y    Y      Y    6-31g**
  H104      1.597  1.150  0.320    1.008    Y    Y      Y    6-31g**
  C105      1.949  1.900  0.770   12.000    Y    Y      Y    6-31g**
  C106      1.949  1.900  0.770   12.000    Y    Y      Y    6-31g**
  C107      1.949  1.900  0.770   12.000    Y    Y      Y    6-31g**
  C108      1.949  1.900  0.770   12.000    Y    Y      Y    6-31g**
  C109      1.949  1.900  0.770   12.000    Y    Y      Y    6-31g**
  C110      1.949  1.900  0.770   12.000    Y    Y      Y    6-31g**
  C111      1.949  1.900  0.770   12.000    Y    Y      Y    6-31g**
  H112      1.597  1.150  0.320    1.008    Y    Y      Y    6-31g**
  H113      1.597  1.150  0.320    1.008    Y    Y      Y    6-31g**
  H114      1.597  1.150  0.320    1.008    Y    Y      Y    6-31g**
  H115      1.597  1.150  0.320    1.008    Y    Y      Y    6-31g**
  H116      1.597  1.150  0.320    1.008    Y    Y      Y    6-31g**
  H117      1.597  1.150  0.320    1.008    Y    Y      Y    6-31g**
  N118      1.831  1.600  0.750   14.003    Y    Y      Y    6-31g**
  S119      2.070  1.900  1.020   31.972    Y    Y      Y    6-31g**
  O120      1.702  1.600  0.730   15.995    Y    Y      Y    6-31g**
  O121      1.702  1.600  0.730   15.995    Y    Y      Y    6-31g**
  C122      1.949  1.900  0.770   12.000    Y    Y      Y    6-31g**
  F123      1.736  1.682  0.720   18.998    Y    Y      Y    6-31g**
  F124      1.736  1.682  0.720   18.998    Y    Y      Y    6-31g**
  F125      1.736  1.682  0.720   18.998    Y    Y      Y    6-31g**
  C126      1.949  1.900  0.770   12.000    Y    Y      Y    6-31g**
  C127      1.949  1.900  0.770   12.000    Y    Y      Y    6-31g**
  C128      1.949  1.900  0.770   12.000    Y    Y      Y    6-31g**
  C129      1.949  1.900  0.770   12.000    Y    Y      Y    6-31g**
  N130      1.831  1.600  0.750   14.003    Y    Y      Y    6-31g**
  H131      1.597  1.150  0.320    1.008    Y    Y      Y    6-31g**
  H132      1.597  1.150  0.320    1.008    Y    Y      Y    6-31g**
  H133      1.597  1.150  0.320    1.008    Y    Y      Y    6-31g**
  H134      1.597  1.150  0.320    1.008    Y    Y      Y    6-31g**
  H135      1.597  1.150  0.320    1.008    Y    Y      Y    6-31g**
  S136      2.070  1.900  1.020   31.972    Y    Y      Y    6-31g**
  O137      1.702  1.600  0.730   15.995    Y    Y      Y    6-31g**
  O138      1.702  1.600  0.730   15.995    Y    Y      Y    6-31g**
  C139      1.949  1.900  0.770   12.000    Y    Y      Y    6-31g**
  C140      1.949  1.900  0.770   12.000    Y    Y      Y    6-31g**
  N141      1.831  1.600  0.750   14.003    Y    Y      Y    6-31g**
  C142      1.949  1.900  0.770   12.000    Y    Y      Y    6-31g**
  C143      1.949  1.900  0.770   12.000    Y    Y      Y    6-31g**
  C144      1.949  1.900  0.770   12.000    Y    Y      Y    6-31g**
  H145      1.597  1.150  0.320    1.008    Y    Y      Y    6-31g**
  H146      1.597  1.150  0.320    1.008    Y    Y      Y    6-31g**
  H147      1.597  1.150  0.320    1.008    Y    Y      Y    6-31g**
  H148      1.597  1.150  0.320    1.008    Y    Y      Y    6-31g**
  
  Peak memory usage:    768 Mb
  
  end of program pre
   
 Time(pre)  user:        1.0  user+sys:        1.0  wallclock:        2.0
  
  start of program onee
  
  smallest eigenvalue of S:    2.144E-04
  number of canonical orbitals.....         1673
  Peak memory usage:    900 Mb
  
  end of program onee
   
 Time(onee)  user:       19.8  user+sys:       19.8  wallclock:       37.0
  
  start of program hfig
  
  initial wavefunction generated automatically from atomic wavefunctions
 
  Irreducible     Total no   No of occupied orbitals 
  representation  orbitals   Shell_1  Shell_2    ...
  No Symm         1673        340
  ------------------------
  Orbital occupation/shell    1.000
 
  Peak memory usage:    833 Mb
  
  end of program hfig
   
 Time(hfig)  user:       36.1  user+sys:       36.1  wallclock:       67.9
  
  start of program probe
  
  Peak memory usage:    826 Mb
  
  end of program probe
   
 Time(probe)  user:       21.7  user+sys:       21.7  wallclock:       37.3
  
  start of program grid
  
   grid     grid set  grid #  grid sym
  ------    --------  ------  --------
  coarse        0        0        1
  medium        2        1        1
  fine          0        0        1
  ultrafine     4        2        1
  charge       -1        3        1
  gradient      4        2        1
  density       0        0        1
  DFT-fine    -13        4        1
  DFT-med.    -13        4        1
  DFT-grad    -13        4        1
  DFT-der2      0        0        1
  DFT-cphf      0        0        1
  LMP2-enrg     4        2        1
  LMP2-grad     2        1        1
  DFT-cphf2     0        0        1
  PBF-dens      0        0        1
  plotting      0        0        1
  Rel-grad    -17        0        1
  
  number of gridpoints: 
     atom        C1       C2       C3       C4       H5       C6       C7
  grid # 1      100       94      100       97      110       92      101
  grid # 2      361      336      358      359      426      333      358
  grid # 3       14       28       11       17      196       11       11
  grid # 4    48124    48124    48124    48124    48426    48124    48124
   
  number of gridpoints: 
     atom        C8       C9      H10      C11      C12      C13      C14
  grid # 1       97      100      113      102      102       97       94
  grid # 2      358      355      429      360      367      339      338
  grid # 3       24        7      195       31       47       49       49
  grid # 4    48124    48124    48426    48124    48124    48124    48124
   
  number of gridpoints: 
     atom       C15      C16      H17      H18      H19      H20      C21
  grid # 1       95       97      117      118      118      112      101
  grid # 2      338      338      443      450      449      433      363
  grid # 3       41       32      361      420      411      221       24
  grid # 4    48124    48124    48426    48426    48426    48426    48124
   
  number of gridpoints: 
     atom       C22      C23      C24      C25      C26      H27      H28
  grid # 1      100       96       93       93       95      113      118
  grid # 2      357      335      336      335      337      435      451
  grid # 3        6       21       33       39       32      245      417
  grid # 4    48124    48124    48124    48124    48124    48426    48426
   
  number of gridpoints: 
     atom       H29      H30     Si31     Si32      C33      C34      C35
  grid # 1      118      118      475      475       93       93       92
  grid # 2      453      445      475      475      330      333      333
  grid # 3      423      354        9       11       27       30       18
  grid # 4    48426    48426    38542    38542    48124    48124    48124
   
  number of gridpoints: 
     atom       C36      C37      C38      H39      H40      H41      H42
  grid # 1       99       94       92      117      113      110      112
  grid # 2      357      328      330      451      435      425      428
  grid # 3        9       11       18      373      231      185      234
  grid # 4    48124    48124    48124    48426    48426    48426    48426
   
  number of gridpoints: 
     atom       H43      C44      C45      C46      C47      C48      C49
  grid # 1      117       94       93       93      101       96       94
  grid # 2      448      336      336      335      357      340      336
  grid # 3      375       44       39       30       20       28       42
  grid # 4    48426    48124    48124    48124    48124    48124    48124
   
  number of gridpoints: 
     atom       H50      H51      H52      H53      H54      C55      C56
  grid # 1      118      118      112      112      118       94       93
  grid # 2      453      452      429      433      453      333      334
  grid # 3      425      416      212      232      423       29       29
  grid # 4    48426    48426    48426    48426    48426    48124    48124
   
  number of gridpoints: 
     atom       C57      C58      C59      C60      H61      H62      H63
  grid # 1       92      100       97       94      117      117      110
  grid # 2      336      359      338      333      452      451      427
  grid # 3       22       20       26       29      385      379      189
  grid # 4    48124    48124    48124    48124    48426    48426    48426
   
  number of gridpoints: 
     atom       H64      H65      C66      C67      C68      C69      C70
  grid # 1      108      115       94       94       93      100       95
  grid # 2      417      440      336      336      338      359      334
  grid # 3      122      301       48       48       40       16       24
  grid # 4    48426    48426    48124    48124    48124    48124    48124
   
  number of gridpoints: 
     atom       C71      H72      H73      H74      H75      H76      C77
  grid # 1       94      118      118      112      110      118       93
  grid # 2      336      453      453      433      425      452      331
  grid # 3       40      424      420      234      191      419       29
  grid # 4    48124    48426    48426    48426    48426    48426    48124
   
  number of gridpoints: 
     atom       C78      C79      C80      C81      C82      H83      H84
  grid # 1       93       92      101       95       93      113      117
  grid # 2      333      332      359      335      331      436      448
  grid # 3       26       11       12       20       26      260      358
  grid # 4    48124    48124    48124    48124    48124    48426    48426
   
  number of gridpoints: 
     atom       H85      H86      H87      C88      C89      C90      C91
  grid # 1      112      110      110       93       93       93      100
  grid # 2      431      418      429      334      336      335      359
  grid # 3      227      134      186       37       41       34       20
  grid # 4    48426    48426    48426    48124    48124    48124    48124
   
  number of gridpoints: 
     atom       C92      C93      H94      H95      H96      H97      H98
  grid # 1       94       93      115      118      111      105      109
  grid # 2      333      334      447      451      431      408      426
  grid # 3       21       34      348      413      213       87      165
  grid # 4    48124    48124    48426    48426    48426    48426    48426
   
  number of gridpoints: 
     atom       O99     O100     P101     O102     N103     H104     C105
  grid # 1      111      112      447      115       99       96       91
  grid # 2      432      438      447      453      354      389      323
  grid # 3       25       50        7       36       13       41        6
  grid # 4    47716    47716    38640    47716    47928    48426    48124
   
  number of gridpoints: 
     atom      C106     C107     C108     C109     C110     C111     H112
  grid # 1       97       95       95       98       95       95      118
  grid # 2      332      333      333      356      331      332      451
  grid # 3       38       35       25       17       20       33      419
  grid # 4    48124    48124    48124    48124    48124    48124    48426
   
  number of gridpoints: 
     atom      H113     H114     H115     H116     H117     N118     S119
  grid # 1      118      109      105      114      102      109      432
  grid # 2      449      421      401      435      404      399      432
  grid # 3      408      168       51      273       55       17        6
  grid # 4    48426    48426    48426    48426    48426    47928    48492
   
  number of gridpoints: 
     atom      O120     O121     C122     F123     F124     F125     C126
  grid # 1      118      117       90      519      521      534       91
  grid # 2      470      456      321      519      521      534      323
  grid # 3       78       62        7      112      138      268        7
  grid # 4    47716    47716    48124    47062    47062    47062    48124
   
  number of gridpoints: 
     atom      C127     C128     C129     N130     H131     H132     H133
  grid # 1       93       93       94       96      106      111      117
  grid # 2      328      330      327      341      410      439      459
  grid # 3       12       23       12        7       99      261      446
  grid # 4    48124    48124    48124    47928    48426    48426    48426
   
  number of gridpoints: 
     atom      H134     H135     S136     O137     O138     C139     C140
  grid # 1      111       99      444      121      119       96       96
  grid # 2      439      398      444      492      477      331      338
  grid # 3      226       67       11      219      144       40       36
  grid # 4    48426    48426    48492    47716    47716    48124    48124
   
  number of gridpoints: 
     atom      N141     C142     C143     C144     H145     H146     H147
  grid # 1      111       98       96       96      117      115      113
  grid # 2      412      355      329      331      451      448      442
  grid # 3       61       31       36       39      411      380      299
  grid # 4    47928    48124    48124    48124    48426    48426    48426
   
  number of gridpoints: 
     atom      H148    total
  grid # 1      117    18370
  grid # 2      452    57797
  grid # 3      415    19039
  grid # 4    48426  7104526
   
  Peak memory usage:    795 Mb
  
  end of program grid
   
 Time(grid)  user:     1149.0  user+sys:     1149.0  wallclock:     2674.1
  
  start of program rwr
  
  Peak memory usage:    814 Mb
  
  end of program rwr
   
 Time(rwr)  user:       69.5  user+sys:       69.5  wallclock:      137.0
  
  start of program scf
  
 number of electrons..........        680
 number of alpha electrons....        340
 number of beta electrons.....        340
 number of orbitals, total....       1673
 number of doubly-occ'd orbs..        340
 number of open shell orbs....          0
 number of occupied orbitals..        340
 number of virtual orbitals...       1333
 number of hamiltonians.......          1
 number of shells.............          1
 SCF type: DFT=M06-2X
 Energy computed with NOPS off.
  
       i  u  d  i  g                   
       t  p  i  c  r                                 RMS    maximum
       e  d  i  u  i                       energy  density   DIIS  
       r  t  s  t  d       total energy    change  change    error 
  
etot    1  N  N  1  U   -5562.75451153109           3.6E-03  1.2E-01
etot    2  N  Y  1  U   -5537.83113712362 -2.5E+01  1.6E-02  1.6E-01
etot    3  N  Y  1  U   -5319.33713413132 -2.2E+02  1.5E-02  3.9E-01
etot    4  N  Y  1  U   -5561.31455073432  2.4E+02  3.3E-03  1.1E-01
etot    5  N  Y  1  U   -5573.51564148942  1.2E+01  1.8E-03  4.4E-02
etot    6  N  Y  1  U   -5568.95237562531 -4.6E+00  1.5E-03  8.4E-02
etot    7  N  Y  1  U   -5573.94827063586  5.0E+00  8.1E-04  3.5E-02
etot    8  N  Y  1  U   -5575.53332767113  1.6E+00  1.6E-04  1.1E-02
etot    9  N  Y  1  U   -5575.54022545312  6.9E-03  7.8E-05  7.6E-03
etot   10  N  Y  1  U   -5575.55264842996  1.2E-02  2.2E-05  1.3E-03
etot   11  N  Y  1  U   -5575.55315036566  5.0E-04  1.1E-05  8.6E-04
etot   12  N  Y  1  U   -5575.55337402731  2.2E-04  4.9E-06  2.0E-04
etot   13  N  N  1  U   -5575.55340341329  2.9E-05  0.0E+00  0.0E+00
  
  
 Energy components, in hartrees:
   (A)  Nuclear repulsion............   20909.11837415441
   (E)  Total one-electron terms.....  -49345.89719676338
   (F)    Electron-nuclear...........  -54881.89612967115
   (H)    Kinetic....................    5535.99893290775
   (I)  Total two-electron terms.....   22861.22541919568
   (J)    Coulomb....................   23512.47711611910
   (K)    Exchange+Correlation.......    -651.25169692342
   (L)  Electronic energy............  -26484.67177756770  (E+I)
   (M)  -V/T.........................       2.00714495631  (-(A+F+I)/H)
   (N)  Total energy.................   -5575.55340341329  (A+L)
   (O)  Gas phase energy.............   -5575.55340341329
  
 SCFE: SCF energy: DFT(m06-2x)     -5575.55340341329 hartrees   iterations:  13
  
 
 HOMO energy:    -0.25388
 LUMO energy:    -0.06281
 
  Orbital energies (hartrees): 
   -90.17725   -90.15329   -78.21228   -67.00727   -67.00382   -25.28809
   -25.28769   -25.28705   -19.68950   -19.68884   -19.65587   -19.65239
   -19.63086   -19.62529   -19.60952   -14.81893   -14.81631   -14.79521
   -14.74223   -10.80486   -10.66023   -10.63872   -10.62661   -10.62006
   -10.61565   -10.61337   -10.59811   -10.59674   -10.59652   -10.58940
   -10.58155   -10.57298   -10.57127   -10.56925   -10.56896   -10.56874
   -10.56634   -10.56611   -10.56457   -10.56396   -10.56212   -10.56102
   -10.56065   -10.56061   -10.55765   -10.55579   -10.55393   -10.55323
   -10.55290   -10.55240   -10.55207   -10.55171   -10.55139   -10.55133
   -10.55123   -10.55055   -10.55013   -10.54975   -10.54946   -10.54889
   -10.54740   -10.54695   -10.54685   -10.54656   -10.54632   -10.54577
   -10.54539   -10.54518   -10.54398   -10.54238   -10.54214   -10.54004
   -10.54003   -10.54000   -10.53899   -10.53877   -10.53837   -10.53767
   -10.53520   -10.53465   -10.53385   -10.53383   -10.53290   -10.53285
   -10.53170   -10.53165   -10.53097   -10.52988   -10.52809   -10.52532
   -10.52269   -10.52226    -8.48759    -8.46198    -6.99166    -6.40982
    -6.40864    -6.40816    -6.38379    -6.38356    -6.38332    -5.53821
    -5.53512    -5.11026    -5.10900    -5.10759    -3.84803    -3.84780
    -3.84738    -3.84493    -3.84449    -3.84446    -1.45453    -1.36401
    -1.36236    -1.24743    -1.23164    -1.21833    -1.18620    -1.13350
    -1.10965    -1.10385    -1.09122    -1.09027    -1.06164    -0.98963
    -0.98007    -0.97184    -0.96589    -0.94520    -0.94108    -0.94033
    -0.93398    -0.93279    -0.92821    -0.92762    -0.92096    -0.91028
    -0.90588    -0.89230    -0.88916    -0.87972    -0.85278    -0.85266
    -0.84429    -0.83935    -0.83843    -0.83771    -0.83435    -0.83370
    -0.83239    -0.82831    -0.82798    -0.82638    -0.82506    -0.82365
    -0.82109    -0.82066    -0.81772    -0.81605    -0.81401    -0.81362
    -0.79996    -0.76030    -0.75651    -0.74631    -0.73001    -0.71611
    -0.70852    -0.70359    -0.70261    -0.69602    -0.69007    -0.68523
    -0.68258    -0.68143    -0.67878    -0.67699    -0.67446    -0.67260
    -0.67257    -0.67187    -0.67098    -0.66608    -0.66308    -0.66234
    -0.65983    -0.65879    -0.65737    -0.65386    -0.65369    -0.65043
    -0.65003    -0.64331    -0.63700    -0.62548    -0.61346    -0.60860
    -0.60653    -0.60068    -0.59824    -0.58515    -0.58409    -0.58132
    -0.58039    -0.57741    -0.57508    -0.57326    -0.57029    -0.56933
    -0.56668    -0.56118    -0.55758    -0.55569    -0.55124    -0.54981
    -0.54620    -0.54372    -0.54146    -0.53916    -0.53636    -0.53460
    -0.53029    -0.52566    -0.52553    -0.52239    -0.51952    -0.51847
    -0.51672    -0.51344    -0.51281    -0.51144    -0.51010    -0.50858
    -0.50731    -0.50525    -0.50341    -0.50230    -0.49992    -0.49955
    -0.49890    -0.49813    -0.49700    -0.49697    -0.49551    -0.49371
    -0.49297    -0.49160    -0.49136    -0.48880    -0.48653    -0.48536
    -0.48418    -0.48242    -0.48091    -0.48038    -0.47972    -0.47304
    -0.47076    -0.46980    -0.46861    -0.46798    -0.46525    -0.46349
    -0.46058    -0.45325    -0.44936    -0.44831    -0.44628    -0.44493
    -0.44303    -0.43848    -0.43655    -0.43370    -0.43116    -0.42892
    -0.42592    -0.42471    -0.42229    -0.42148    -0.42063    -0.41766
    -0.41680    -0.41398    -0.41094    -0.40872    -0.40646    -0.40384
    -0.40185    -0.39976    -0.39651    -0.39367    -0.39318    -0.39290
    -0.39064    -0.38953    -0.38807    -0.38562    -0.38413    -0.38182
    -0.38141    -0.37905    -0.37736    -0.37497    -0.37369    -0.36883
    -0.36837    -0.35965    -0.35489    -0.35057    -0.34890    -0.34477
    -0.34426    -0.34099    -0.33753    -0.33670    -0.33398    -0.33148
    -0.32878    -0.32746    -0.32427    -0.31755    -0.31252    -0.30204
    -0.29987    -0.29892    -0.29699    -0.29669    -0.29586    -0.28978
    -0.28837    -0.28803    -0.28510    -0.28363    -0.28341    -0.28129
    -0.27899    -0.27815    -0.27233    -0.25388    -0.06281    -0.02539
    -0.01874    -0.00904    -0.00018     0.01050     0.01721     0.01851
     0.02084     0.02342
 
  Peak memory usage:   1028 Mb
  
  end of program scf
   
 Time(scf)  user:    34580.9  user+sys:    34580.9  wallclock:   139624.4
  
  start of program ch
  
  gridpoints used for charge fit        16491
    out of a possible maximum of        19039
  
   Electrostatic potential fitting constrained to reproduce
     total charge:                yes
     dipole moment:               no 
     traceless quadrupole moment: no 
     traceless octapole moment:   no 
  
  Atomic charges from electrostatic potential: 
   
 Atom       C1           C2           C3           C4           H5      
 Charge   -0.13160     -0.43167      0.10019      0.08641      0.19808
   
 Atom       C6           C7           C8           C9           H10     
 Charge   -0.35330     -0.06241      0.19903     -0.10398      0.18685
   
 Atom       C11          C12          C13          C14          C15     
 Charge    0.08021      0.24730     -0.25183     -0.10380     -0.16471
   
 Atom       C16          H17          H18          H19          H20     
 Charge   -0.12557      0.15114      0.12941      0.14399      0.10257
   
 Atom       C21          C22          C23          C24          C25     
 Charge    0.16788      0.18780     -0.23458     -0.14257     -0.12238
   
 Atom       C26          H27          H28          H29          H30     
 Charge   -0.24273      0.15175      0.14418      0.13602      0.15444
   
 Atom       Si31         Si32         C33          C34          C35     
 Charge   -0.05667      0.27377     -0.15945     -0.11304     -0.15949
   
 Atom       C36          C37          C38          H39          H40     
 Charge    0.19316     -0.20129     -0.10699      0.12644      0.12594
   
 Atom       H41          H42          H43          C44          C45     
 Charge    0.11242      0.13845      0.11697     -0.17012     -0.10224
   
 Atom       C46          C47          C48          C49          H50     
 Charge   -0.21832      0.19280     -0.22836     -0.08833      0.13606
   
 Atom       H51          H52          H53          H54          C55     
 Charge    0.12536      0.14074      0.11434      0.12649     -0.14321
   
 Atom       C56          C57          C58          C59          C60     
 Charge   -0.14574     -0.12284     -0.02766     -0.08970     -0.08947
   
 Atom       H61          H62          H63          H64          H65     
 Charge    0.13365      0.13106      0.12605      0.04064      0.10052
   
 Atom       C66          C67          C68          C69          C70     
 Charge   -0.11519     -0.16090     -0.05155     -0.08450     -0.12272
   
 Atom       C71          H72          H73          H74          H75     
 Charge   -0.13116      0.12494      0.13495      0.07597      0.12222
   
 Atom       H76          C77          C78          C79          C80     
 Charge    0.12343     -0.03097     -0.29162      0.03600      0.04845
   
 Atom       C81          C82          H83          H84          H85     
 Charge   -0.30323     -0.08125      0.09435      0.15959      0.06181
   
 Atom       H86          H87          C88          C89          C90     
 Charge    0.18875      0.10735     -0.03631     -0.22042     -0.03120
   
 Atom       C91          C92          C93          H94          H95     
 Charge   -0.19190      0.14515     -0.26876      0.10563      0.14125
   
 Atom       H96          H97          H98          O99          O100    
 Charge    0.10188     -0.03981      0.14925     -0.19863     -0.21756
   
 Atom       P101         O102         N103         H104         C105    
 Charge    0.81924     -0.50605     -0.34772      0.38295     -0.07958
   
 Atom       C106         C107         C108         C109         C110    
 Charge   -0.07117     -0.19170     -0.14984      0.16240      0.01890
   
 Atom       C111         H112         H113         H114         H115    
 Charge   -0.20890      0.13241      0.15498      0.18248      0.01195
   
 Atom       H116         H117         N118         S119         O120    
 Charge    0.13817      0.21775     -0.52773      0.46794     -0.38145
   
 Atom       O121         C122         F123         F124         F125    
 Charge   -0.44795      0.49291     -0.12383     -0.13841     -0.14643
   
 Atom       C126         C127         C128         C129         N130    
 Charge    0.04290     -0.21976     -0.23000     -0.10767      0.17484
   
 Atom       H131         H132         H133         H134         H135    
 Charge    0.08047      0.20982      0.18332      0.15333      0.15607
   
 Atom       S136         O137         O138         C139         C140    
 Charge    0.56579     -0.38178     -0.42794     -0.41753      0.35732
   
 Atom       N141         C142         C143         C144         H145    
 Charge   -0.56344      0.58032     -0.45888      0.18135      0.19439
   
 Atom       H146         H147         H148    
 Charge    0.07115      0.21057      0.11275
  
  sum of atomic charges:    -0.000000
   
 RMS Error   9.72E-04 hartrees
 
  Peak memory usage:    816 Mb
  
  end of program ch
   
 Time(ch)  user:       18.3  user+sys:       18.3  wallclock:       71.9
  
  start of program post
  
  Writing input files for PBF
  Peak memory usage:    759 Mb
  
  end of program post
   
 Time(post)  user:        0.8  user+sys:        0.8  wallclock:        3.5

  start of program pbf

Pbf Version 4.10

Molecular surface area:      844.58813   [A2]
Reaction field energy:       -16.72798   [kT]
  Peak memory usage: 721 Mb

  end of program pbf

 Time(pbf)  user:        7.2  user+sys:        7.3  wallclock:       26.9
  
  start of program solv
  
   number of surface charges from PBF   13306
   sum of surface charges     -0.00024
   
  nuclear repulsion energy.......   20909.118374154 hartrees
  Peak memory usage:    894 Mb
  
  end of program solv
   
 Time(solv)  user:       36.1  user+sys:       36.1  wallclock:      143.8
  
  start of program scf
  
 Energy computed with NOPS off.
  
       i  u  d  i  g                   
       t  p  i  c  r                                 RMS    maximum
       e  d  i  u  i                       energy  density   DIIS  
       r  t  s  t  d       total energy    change  change    error 
  
etot    1  N  N  1  U   -5575.58861181039           5.0E-05  1.1E-03
etot    2  N  Y  1  U   -5575.58935482198  7.4E-04  1.6E-05  8.3E-04
etot    3  N  Y  1  U   -5575.58957871780  2.2E-04  5.5E-06  4.5E-04
etot    4  N  Y  1  U   -5575.58963148613  5.3E-05  2.4E-06  9.4E-05
etot    5  N  N  1  U   -5575.58963855798  7.1E-06  0.0E+00  0.0E+00
  
  
 Energy components, in hartrees:
   (A)  Total zero-electron terms....   20911.98451468512
   (B)    Nuclear-nuclear............   20909.11837415441
   (C)    Nuclear-solvent............       2.86614053071
   (E)  Total one-electron terms.....  -49350.34861909891
   (F)    Electron-nuclear...........  -54883.50385803590
   (G)    Electron-solvent...........      -2.90338748148
   (H)    Kinetic....................    5536.05862641848
   (I)  Total two-electron terms.....   22862.77446585581
   (J)    Coulomb....................   23514.04747678103
   (K)    Exchange+Correlation.......    -651.27301092522
   (L)  Electronic energy............  -26487.57415324309  (E+I)
   (N)  Total quantum mech. energy...   -5575.58963855798  (A+L)
   (O)  Gas phase energy.............   -5575.55340341329
   (P)  Solution phase energy........   -5575.57101508259  (Q+R+S)
   (Q)    Total solute energy........   -5575.55239160720  (N-C-G)
   (R)    Total solvent energy.......      -0.01862347539  (C/2+G/2)
   (S)    Solute cavity energy.......       0.00000000000
   (U)  Reorganization energy........       0.00101180609  (Q-O)
   (V)  Solvation energy.............      -0.01761166930  (P-O)
  
 SCFE:  Solution phase energy: DFT(m06-2x)      -5575.57101508259 hartrees
        SCF iterations:   5
  
 
 HOMO energy:    -0.25621
 LUMO energy:    -0.06325
 
  Orbital energies (hartrees): 
   -90.18100   -90.15753   -78.21475   -67.01000   -67.00717   -25.29343
   -25.29241   -25.29136   -19.69207   -19.69115   -19.65977   -19.65700
   -19.63441   -19.62915   -19.61214   -14.81905   -14.81863   -14.79458
   -14.74533   -10.80966   -10.66153   -10.63677   -10.62908   -10.62223
   -10.61516   -10.60937   -10.59717   -10.59163   -10.59067   -10.58301
   -10.58170   -10.57499   -10.57315   -10.57059   -10.56897   -10.56835
   -10.56835   -10.56458   -10.56430   -10.56304   -10.56262   -10.56250
   -10.56062   -10.55997   -10.55967   -10.55829   -10.55451   -10.55408
   -10.55344   -10.55309   -10.55281   -10.55265   -10.55251   -10.55250
   -10.55175   -10.55152   -10.55126   -10.55103   -10.55072   -10.55037
   -10.54975   -10.54941   -10.54911   -10.54879   -10.54868   -10.54843
   -10.54810   -10.54771   -10.54659   -10.54549   -10.54520   -10.54366
   -10.54316   -10.54278   -10.54171   -10.54124   -10.54116   -10.54084
   -10.53852   -10.53818   -10.53726   -10.53724   -10.53683   -10.53619
   -10.53514   -10.53458   -10.53441   -10.53346   -10.53266   -10.52860
   -10.52573   -10.52571    -8.49129    -8.46612    -6.99416    -6.41351
    -6.41241    -6.41180    -6.38794    -6.38769    -6.38749    -5.54092
    -5.53845    -5.11275    -5.11149    -5.11007    -3.85074    -3.85051
    -3.85011    -3.84826    -3.84783    -3.84780    -1.45944    -1.36922
    -1.36695    -1.25172    -1.23435    -1.22193    -1.18873    -1.13825
    -1.10989    -1.10755    -1.09399    -1.08766    -1.06379    -0.99278
    -0.98227    -0.97148    -0.96792    -0.94684    -0.94384    -0.94352
    -0.93753    -0.93188    -0.93185    -0.92751    -0.92272    -0.91214
    -0.90401    -0.89188    -0.89135    -0.87857    -0.85445    -0.85214
    -0.84646    -0.84127    -0.83943    -0.83920    -0.83689    -0.83584
    -0.83558    -0.83055    -0.82982    -0.82950    -0.82855    -0.82599
    -0.82442    -0.82395    -0.82163    -0.81927    -0.81808    -0.81353
    -0.80188    -0.76340    -0.75505    -0.74150    -0.73307    -0.71558
    -0.71065    -0.70553    -0.70166    -0.69825    -0.69233    -0.68636
    -0.68518    -0.68343    -0.68294    -0.68022    -0.67709    -0.67454
    -0.67403    -0.67328    -0.67207    -0.66905    -0.66486    -0.66347
    -0.66218    -0.66146    -0.66040    -0.65631    -0.65425    -0.65332
    -0.65207    -0.64333    -0.63911    -0.62741    -0.61381    -0.60868
    -0.60707    -0.60286    -0.60018    -0.58787    -0.58271    -0.58202
    -0.58176    -0.57945    -0.57591    -0.57514    -0.57255    -0.56996
    -0.56774    -0.56496    -0.56071    -0.55984    -0.55364    -0.55210
    -0.54833    -0.54437    -0.54174    -0.53947    -0.53706    -0.53631
    -0.53178    -0.52837    -0.52695    -0.52465    -0.52276    -0.51966
    -0.51937    -0.51529    -0.51470    -0.51306    -0.51092    -0.51083
    -0.50972    -0.50672    -0.50506    -0.50419    -0.50365    -0.50088
    -0.49926    -0.49891    -0.49797    -0.49650    -0.49585    -0.49479
    -0.49386    -0.49290    -0.49181    -0.49034    -0.48947    -0.48827
    -0.48522    -0.48384    -0.48251    -0.48213    -0.48192    -0.47540
    -0.47340    -0.47243    -0.46898    -0.46777    -0.46504    -0.46273
    -0.46145    -0.45539    -0.45151    -0.45058    -0.44775    -0.44662
    -0.44520    -0.44165    -0.43778    -0.43602    -0.43321    -0.43243
    -0.42814    -0.42671    -0.42563    -0.42419    -0.42135    -0.42048
    -0.41905    -0.41751    -0.41355    -0.41058    -0.40935    -0.40628
    -0.40408    -0.40220    -0.39842    -0.39587    -0.39472    -0.39425
    -0.39259    -0.39201    -0.39035    -0.38848    -0.38733    -0.38441
    -0.38388    -0.38184    -0.37998    -0.37759    -0.37677    -0.37111
    -0.36542    -0.36308    -0.35750    -0.35178    -0.34933    -0.34672
    -0.34304    -0.34176    -0.34073    -0.33930    -0.33700    -0.33315
    -0.33113    -0.32995    -0.32664    -0.31791    -0.31234    -0.30424
    -0.30305    -0.30255    -0.30088    -0.29934    -0.29782    -0.29337
    -0.29100    -0.29062    -0.28888    -0.28724    -0.28628    -0.28556
    -0.28214    -0.28130    -0.27454    -0.25621    -0.06325    -0.02261
    -0.02109    -0.00463    -0.00246     0.00805     0.01561     0.01689
     0.01849     0.02046
 
  Peak memory usage:   1029 Mb
  
  end of program scf
   
 Time(scf)  user:    10608.2  user+sys:    10608.2  wallclock:    43946.4
  
  start of program sole
  
    SCRF                   solvation energy
  iteration          Hartrees            kcal/mol
     0               0.0000000            0.0000
     1              -0.0176117          -11.0515
  
  solvation energy not yet converged... 
  
  Peak memory usage:    813 Mb
  
  end of program sole
   
 Time(sole)  user:        0.1  user+sys:        0.1  wallclock:        0.8
  
  start of program ch
  
  gridpoints used for charge fit        16491
    out of a possible maximum of        16491
  
   Electrostatic potential fitting constrained to reproduce
     total charge:                yes
     dipole moment:               no 
     traceless quadrupole moment: no 
     traceless octapole moment:   no 
  
  Atomic charges from electrostatic potential: 
   
 Atom       C1           C2           C3           C4           H5      
 Charge   -0.12629     -0.45565      0.12881      0.06117      0.20772
   
 Atom       C6           C7           C8           C9           H10     
 Charge   -0.36827     -0.04309      0.18482     -0.10838      0.19447
   
 Atom       C11          C12          C13          C14          C15     
 Charge    0.07620      0.25559     -0.26515     -0.10707     -0.17630
   
 Atom       C16          H17          H18          H19          H20     
 Charge   -0.12348      0.15949      0.13789      0.15373      0.10349
   
 Atom       C21          C22          C23          C24          C25     
 Charge    0.17034      0.19344     -0.24175     -0.14874     -0.12980
   
 Atom       C26          H27          H28          H29          H30     
 Charge   -0.24993      0.15543      0.15254      0.14460      0.16187
   
 Atom       Si31         Si32         C33          C34          C35     
 Charge   -0.08164      0.26542     -0.16273     -0.12637     -0.16702
   
 Atom       C36          C37          C38          H39          H40     
 Charge    0.20194     -0.20061     -0.11460      0.13420      0.13391
   
 Atom       H41          H42          H43          C44          C45     
 Charge    0.11388      0.14093      0.12571     -0.17832     -0.10771
   
 Atom       C46          C47          C48          C49          H50     
 Charge   -0.22707      0.19518     -0.23263     -0.09537      0.14462
   
 Atom       H51          H52          H53          H54          C55     
 Charge    0.13362      0.14694      0.11537      0.13496     -0.15695
   
 Atom       C56          C57          C58          C59          C60     
 Charge   -0.14820     -0.13652     -0.01948     -0.09638     -0.09473
   
 Atom       H61          H62          H63          H64          H65     
 Charge    0.14269      0.13711      0.13301      0.04310      0.10623
   
 Atom       C66          C67          C68          C69          C70     
 Charge   -0.12020     -0.17232     -0.05055     -0.09044     -0.12324
   
 Atom       C71          H72          H73          H74          H75     
 Charge   -0.13922      0.13323      0.14412      0.07522      0.12591
   
 Atom       H76          C77          C78          C79          C80     
 Charge    0.13137     -0.03643     -0.30176      0.04427      0.04853
   
 Atom       C81          C82          H83          H84          H85     
 Charge   -0.31070     -0.08588      0.09639      0.16603      0.06269
   
 Atom       H86          H87          C88          C89          C90     
 Charge    0.19000      0.11149     -0.03893     -0.22590     -0.04005
   
 Atom       C91          C92          C93          H94          H95     
 Charge   -0.19932      0.15160     -0.28331      0.11137      0.14828
   
 Atom       H96          H97          H98          O99          O100    
 Charge    0.10691     -0.04299      0.15780     -0.17541     -0.19296
   
 Atom       P101         O102         N103         H104         C105    
 Charge    0.76770     -0.48546     -0.32964      0.37241     -0.08111
   
 Atom       C106         C107         C108         C109         C110    
 Charge   -0.07223     -0.19891     -0.14849      0.15497      0.02797
   
 Atom       C111         H112         H113         H114         H115    
 Charge   -0.21767      0.14075      0.16330      0.18100      0.00346
   
 Atom       H116         H117         N118         S119         O120    
 Charge    0.14379      0.22164     -0.50550      0.44407     -0.37148
   
 Atom       O121         C122         F123         F124         F125    
 Charge   -0.44029      0.49851     -0.12452     -0.13938     -0.15020
   
 Atom       C126         C127         C128         C129         N130    
 Charge    0.05534     -0.22858     -0.23276     -0.11222      0.17521
   
 Atom       H131         H132         H133         H134         H135    
 Charge    0.07301      0.21500      0.19281      0.16244      0.15510
   
 Atom       S136         O137         O138         C139         C140    
 Charge    0.57461     -0.40321     -0.44273     -0.42252      0.36799
   
 Atom       N141         C142         C143         C144         H145    
 Charge   -0.58781      0.58910     -0.47024      0.18784      0.20374
   
 Atom       H146         H147         H148    
 Charge    0.07670      0.21836      0.12238
  
  sum of atomic charges:    -0.000000
   
 RMS Error   9.84E-04 hartrees
 
  Peak memory usage:    816 Mb
  
  end of program ch
   
 Time(ch)  user:       18.3  user+sys:       18.3  wallclock:       81.2
  
  start of program post
  
  Writing input files for PBF
  Peak memory usage:    759 Mb
  
  end of program post
   
 Time(post)  user:        0.8  user+sys:        0.8  wallclock:        3.3

  start of program pbf

Pbf Version 4.10

Molecular surface area:      844.58813   [A2]
Reaction field energy:       -19.12621   [kT]
  Peak memory usage: 721 Mb

  end of program pbf

 Time(pbf)  user:        7.6  user+sys:        7.7  wallclock:       30.3
  
  start of program solv
  
   number of surface charges from PBF   13306
   sum of surface charges     -0.00026
   
  nuclear repulsion energy.......   20909.118374154 hartrees
  Peak memory usage:    894 Mb
  
  end of program solv
   
 Time(solv)  user:       36.3  user+sys:       36.3  wallclock:      141.6
  
  start of program scf
  
 Energy computed with NOPS off.
  
       i  u  d  i  g                   
       t  p  i  c  r                                 RMS    maximum
       e  d  i  u  i                       energy  density   DIIS  
       r  t  s  t  d       total energy    change  change    error 
  
etot    1  N  N  1  U   -5575.59220101614           5.9E-06  1.7E-04
etot    2  N  N  1  U   -5575.59220202857  1.0E-06  0.0E+00  0.0E+00
  
  
 Energy components, in hartrees:
   (A)  Total zero-electron terms....   20912.27708351715
   (B)    Nuclear-nuclear............   20909.11837415441
   (C)    Nuclear-solvent............       3.15870936274
   (E)  Total one-electron terms.....  -49351.00880684580
   (F)    Electron-nuclear...........  -54883.87659308199
   (G)    Electron-solvent...........      -3.19881337156
   (H)    Kinetic....................    5536.06659960775
   (I)  Total two-electron terms.....   22863.13952130007
   (J)    Coulomb....................   23514.41411856564
   (K)    Exchange+Correlation.......    -651.27459726557
   (L)  Electronic energy............  -26487.86928554573  (E+I)
   (N)  Total quantum mech. energy...   -5575.59220202857  (A+L)
   (O)  Gas phase energy.............   -5575.55340341329
   (P)  Solution phase energy........   -5575.57215002416  (Q+R+S)
   (Q)    Total solute energy........   -5575.55209801976  (N-C-G)
   (R)    Total solvent energy.......      -0.02005200441  (C/2+G/2)
   (S)    Solute cavity energy.......       0.00000000000
   (U)  Reorganization energy........       0.00130539353  (Q-O)
   (V)  Solvation energy.............      -0.01874661087  (P-O)
  
 SCFE:  Solution phase energy: DFT(m06-2x)      -5575.57215002416 hartrees
        SCF iterations:   2
  
 
 HOMO energy:    -0.28050
 LUMO energy:    -0.06286
 
  Orbital energies (hartrees): 
   -69.98527   -42.82591   -42.04333   -37.99826   -36.89055   -35.00205
   -32.70077   -31.30744   -29.32026   -26.11597   -24.09200   -23.00599
   -21.50809   -20.64389   -20.46071   -20.23068   -19.85995   -19.48668
   -18.22391   -17.85229   -17.83038   -17.30433   -16.62227   -16.35935
   -15.94641   -14.16525   -13.98463   -12.40583   -12.31341   -11.99425
   -11.49186   -11.31186   -11.16319   -11.05177   -10.97595   -10.88832
   -10.87521   -10.84889   -10.82350   -10.79359   -10.75859   -10.74018
   -10.73042   -10.66861   -10.62278   -10.62186   -10.58207   -10.57395
   -10.56734   -10.56573   -10.56530   -10.55342   -10.55340   -10.54571
   -10.53820   -10.53595   -10.52733   -10.49332   -10.46782   -10.45790
   -10.45786   -10.45375   -10.38877   -10.37051   -10.34188   -10.33643
   -10.30688   -10.18627   -10.15511   -10.15245   -10.13836   -10.09075
   -10.07827   -10.06155   -10.03788   -10.02725   -10.01747    -9.99635
    -9.99476    -9.98366    -9.98008    -9.95985    -9.89151    -9.86006
    -9.83478    -9.81007    -9.78831    -9.70180    -9.66904    -9.66514
    -9.64309    -9.63862    -9.60146    -9.45926    -9.31572    -9.28787
    -9.25674    -9.15614    -9.07575    -8.85750    -8.85659    -8.56356
    -8.52380    -8.40905    -8.27372    -8.25570    -8.15810    -7.13236
    -7.02310    -6.78635    -6.71614    -4.68384    -1.54878    -1.36624
    -1.30368    -1.22961    -1.07021    -1.03757    -1.03011    -0.96706
    -0.95504    -0.93888    -0.93669    -0.93229    -0.93125    -0.91234
    -0.90631    -0.90069    -0.89753    -0.88398    -0.87904    -0.86341
    -0.85993    -0.85370    -0.85326    -0.85251    -0.83941    -0.83252
    -0.82970    -0.82520    -0.81671    -0.81493    -0.81349    -0.81293
    -0.80728    -0.80715    -0.79825    -0.79788    -0.79486    -0.79146
    -0.78419    -0.78081    -0.77949    -0.77946    -0.77655    -0.77486
    -0.76511    -0.76218    -0.75987    -0.75933    -0.75442    -0.75216
    -0.75208    -0.74923    -0.74839    -0.74490    -0.74260    -0.73861
    -0.73466    -0.72993    -0.72721    -0.72646    -0.71442    -0.70432
    -0.69661    -0.69557    -0.69530    -0.69318    -0.69185    -0.68790
    -0.68332    -0.68048    -0.68040    -0.67527    -0.66785    -0.66484
    -0.66279    -0.66267    -0.66071    -0.66046    -0.65818    -0.65619
    -0.65578    -0.65172    -0.65036    -0.64539    -0.64534    -0.64513
    -0.63052    -0.62819    -0.62432    -0.61827    -0.61530    -0.61415
    -0.61139    -0.61121    -0.60797    -0.60333    -0.60125    -0.59992
    -0.59338    -0.58827    -0.58315    -0.57866    -0.57577    -0.57523
    -0.56624    -0.56620    -0.56357    -0.56228    -0.56122    -0.56117
    -0.56065    -0.55473    -0.55204    -0.55120    -0.55109    -0.54787
    -0.54420    -0.54133    -0.54007    -0.53928    -0.53588    -0.53118
    -0.53025    -0.52905    -0.52485    -0.52284    -0.52068    -0.51864
    -0.51647    -0.51604    -0.51550    -0.51435    -0.51355    -0.51243
    -0.51107    -0.51085    -0.50899    -0.50777    -0.50670    -0.50557
    -0.50057    -0.50037    -0.49862    -0.49832    -0.49588    -0.49581
    -0.49358    -0.49309    -0.49226    -0.49144    -0.49083    -0.49038
    -0.48838    -0.48824    -0.48645    -0.48403    -0.48306    -0.48201
    -0.47794    -0.47579    -0.47542    -0.47484    -0.47430    -0.47383
    -0.47344    -0.47320    -0.47077    -0.47074    -0.47056    -0.46927
    -0.46406    -0.46344    -0.45766    -0.45612    -0.45501    -0.45455
    -0.45389    -0.45355    -0.45213    -0.45006    -0.44682    -0.43884
    -0.43780    -0.43578    -0.43542    -0.43519    -0.43312    -0.43284
    -0.43238    -0.43044    -0.43025    -0.42861    -0.42809    -0.42663
    -0.42650    -0.42287    -0.41905    -0.41744    -0.41617    -0.41068
    -0.40923    -0.40222    -0.39900    -0.39771    -0.39745    -0.39238
    -0.37673    -0.36848    -0.36311    -0.36158    -0.34386    -0.34225
    -0.34221    -0.32344    -0.31714    -0.31563    -0.31357    -0.31245
    -0.31012    -0.30880    -0.30789    -0.30788    -0.30761    -0.30311
    -0.29845    -0.28497    -0.28442    -0.28050    -0.06286    -0.02206
    -0.02108    -0.00413    -0.00242     0.00809     0.01562     0.01698
     0.01855     0.02041
 
  Peak memory usage:   1029 Mb
  
  end of program scf
   
 Time(scf)  user:     2672.6  user+sys:     2672.6  wallclock:    11072.6
  
  start of program sole
  
    SCRF                   solvation energy
  iteration          Hartrees            kcal/mol
     0               0.0000000            0.0000
     1              -0.0176117          -11.0515
     2              -0.0187466          -11.7637
  
  solvation energy not yet converged... 
  
  Peak memory usage:    813 Mb
  
  end of program sole
   
 Time(sole)  user:        0.2  user+sys:        0.2  wallclock:        0.6
  
  start of program ch
  
  gridpoints used for charge fit        16491
    out of a possible maximum of        16491
  
   Electrostatic potential fitting constrained to reproduce
     total charge:                yes
     dipole moment:               no 
     traceless quadrupole moment: no 
     traceless octapole moment:   no 
  
  Atomic charges from electrostatic potential: 
   
 Atom       C1           C2           C3           C4           H5      
 Charge   -0.12667     -0.45754      0.13066      0.05914      0.20850
   
 Atom       C6           C7           C8           C9           H10     
 Charge   -0.36860     -0.04223      0.18312     -0.10904      0.19497
   
 Atom       C11          C12          C13          C14          C15     
 Charge    0.07627      0.25632     -0.26648     -0.10614     -0.17615
   
 Atom       C16          H17          H18          H19          H20     
 Charge   -0.12374      0.16000      0.13851      0.15440      0.10349
   
 Atom       C21          C22          C23          C24          C25     
 Charge    0.17028      0.19444     -0.24287     -0.14827     -0.12952
   
 Atom       C26          H27          H28          H29          H30     
 Charge   -0.25010      0.15558      0.15306      0.14522      0.16223
   
 Atom       Si31         Si32         C33          C34          C35     
 Charge   -0.08439      0.26423     -0.16162     -0.12813     -0.16761
   
 Atom       C36          C37          C38          H39          H40     
 Charge    0.20144     -0.20068     -0.11431      0.13486      0.13462
   
 Atom       H41          H42          H43          C44          C45     
 Charge    0.11364      0.14089      0.12659     -0.17802     -0.10796
   
 Atom       C46          C47          C48          C49          H50     
 Charge   -0.22739      0.19437     -0.23351     -0.09531      0.14527
   
 Atom       H51          H52          H53          H54          C55     
 Charge    0.13429      0.14714      0.11530      0.13560     -0.15758
   
 Atom       C56          C57          C58          C59          C60     
 Charge   -0.14792     -0.13786     -0.01903     -0.09788     -0.09440
   
 Atom       H61          H62          H63          H64          H65     
 Charge    0.14340      0.13753      0.13349      0.04357      0.10653
   
 Atom       C66          C67          C68          C69          C70     
 Charge   -0.11943     -0.17330     -0.05068     -0.09164     -0.12339
   
 Atom       C71          H72          H73          H74          H75     
 Charge   -0.13916      0.13386      0.14478      0.07477      0.12614
   
 Atom       H76          C77          C78          C79          C80     
 Charge    0.13203     -0.03771     -0.30170      0.04490      0.04906
   
 Atom       C81          C82          H83          H84          H85     
 Charge   -0.31107     -0.08644      0.09635      0.16626      0.06268
   
 Atom       H86          H87          C88          C89          C90     
 Charge    0.19007      0.11193     -0.03804     -0.22603     -0.04025
   
 Atom       C91          C92          C93          H94          H95     
 Charge   -0.20142      0.15177     -0.28410      0.11170      0.14884
   
 Atom       H96          H97          H98          O99          O100    
 Charge    0.10701     -0.04361      0.15845     -0.17346     -0.19083
   
 Atom       P101         O102         N103         H104         C105    
 Charge    0.76295     -0.48325     -0.32825      0.37166     -0.08328
   
 Atom       C106         C107         C108         C109         C110    
 Charge   -0.07029     -0.19880     -0.14933      0.15268      0.02914
   
 Atom       C111         H112         H113         H114         H115    
 Charge   -0.21799      0.14130      0.16378      0.18039      0.00297
   
 Atom       H116         H117         N118         S119         O120    
 Charge    0.14422      0.22184     -0.50468      0.44149     -0.36938
   
 Atom       O121         C122         F123         F124         F125    
 Charge   -0.43940      0.49907     -0.12461     -0.13959     -0.15014
   
 Atom       C126         C127         C128         C129         N130    
 Charge    0.05891     -0.23014     -0.23094     -0.10978      0.17240
   
 Atom       H131         H132         H133         H134         H135    
 Charge    0.07144      0.21520      0.19332      0.16287      0.15551
   
 Atom       S136         O137         O138         C139         C140    
 Charge    0.57202     -0.40507     -0.44166     -0.42062      0.36809
   
 Atom       N141         C142         C143         C144         H145    
 Charge   -0.59161      0.58766     -0.47011      0.18977      0.20459
   
 Atom       H146         H147         H148    
 Charge    0.07723      0.21879      0.12329
  
  sum of atomic charges:    -0.000000
   
 RMS Error   9.85E-04 hartrees
 
  Peak memory usage:    816 Mb
  
  end of program ch
   
 Time(ch)  user:       18.0  user+sys:       18.0  wallclock:       71.6
  
  start of program post
  
  Writing input files for PBF
  Peak memory usage:    759 Mb
  
  end of program post
   
 Time(post)  user:        0.8  user+sys:        0.8  wallclock:        3.8

  start of program pbf

Pbf Version 4.10

Molecular surface area:      844.58813   [A2]
Reaction field energy:       -19.45276   [kT]
  Peak memory usage: 721 Mb

  end of program pbf

 Time(pbf)  user:        7.7  user+sys:        7.7  wallclock:       29.6
  
  start of program solv
  
   number of surface charges from PBF   13306
   sum of surface charges     -0.00027
   
  nuclear repulsion energy.......   20909.118374154 hartrees
  Peak memory usage:    894 Mb
  
  end of program solv
   
 Time(solv)  user:       36.5  user+sys:       36.5  wallclock:      151.8
  
  start of program scf
  
 Energy computed with NOPS off.
  
       i  u  d  i  g                   
       t  p  i  c  r                                 RMS    maximum
       e  d  i  u  i                       energy  density   DIIS  
       r  t  s  t  d       total energy    change  change    error 
  
etot    1  N  N  1  U   -5575.59253083029           5.4E-06  1.3E-04
etot    2  N  N  1  U   -5575.59251756400 -1.3E-05  0.0E+00  0.0E+00
  
  
 Energy components, in hartrees:
   (A)  Total zero-electron terms....   20912.33238451211
   (B)    Nuclear-nuclear............   20909.11837415441
   (C)    Nuclear-solvent............       3.21401035770
   (E)  Total one-electron terms.....  -49350.68345866266
   (F)    Electron-nuclear...........  -54883.48265331442
   (G)    Electron-solvent...........      -3.25432126682
   (H)    Kinetic....................    5536.05351591858
   (I)  Total two-electron terms.....   22862.75855658655
   (J)    Coulomb....................   23514.03203416281
   (K)    Exchange+Correlation.......    -651.27347757626
   (L)  Electronic energy............  -26487.92490207612  (E+I)
   (N)  Total quantum mech. energy...   -5575.59251756400  (A+L)
   (O)  Gas phase energy.............   -5575.55340341329
   (P)  Solution phase energy........   -5575.57236210945  (Q+R+S)
   (Q)    Total solute energy........   -5575.55220665489  (N-C-G)
   (R)    Total solvent energy.......      -0.02015545456  (C/2+G/2)
   (S)    Solute cavity energy.......       0.00000000000
   (U)  Reorganization energy........       0.00119675840  (Q-O)
   (V)  Solvation energy.............      -0.01895869616  (P-O)
  
 SCFE:  Solution phase energy: DFT(m06-2x)      -5575.57236210945 hartrees
        SCF iterations:   2
  
 
 HOMO energy:    -0.25672
 LUMO energy:    -0.06379
 
  Orbital energies (hartrees): 
   -90.18276   -90.15827   -78.21573   -67.01094   -67.00834   -25.29362
   -25.29305   -25.29193   -19.69324   -19.69192   -19.65946   -19.65908
   -19.63529   -19.62885   -19.61241   -14.82166   -14.81911   -14.79708
   -14.74686   -10.81014   -10.66358   -10.63849   -10.63014   -10.62354
   -10.61392   -10.60933   -10.59783   -10.59017   -10.59007   -10.58320
   -10.58143   -10.57580   -10.57367   -10.57105   -10.56914   -10.56895
   -10.56867   -10.56565   -10.56343   -10.56329   -10.56278   -10.56185
   -10.56032   -10.56027   -10.55894   -10.55854   -10.55440   -10.55423
   -10.55351   -10.55308   -10.55302   -10.55247   -10.55243   -10.55241
   -10.55189   -10.55143   -10.55117   -10.55107   -10.55052   -10.55012
   -10.55000   -10.54990   -10.54973   -10.54896   -10.54882   -10.54863
   -10.54825   -10.54821   -10.54702   -10.54607   -10.54549   -10.54460
   -10.54347   -10.54304   -10.54251   -10.54235   -10.54224   -10.54203
   -10.53855   -10.53852   -10.53845   -10.53782   -10.53759   -10.53706
   -10.53630   -10.53573   -10.53549   -10.53466   -10.53404   -10.53018
   -10.52695   -10.52686    -8.49300    -8.46685    -6.99513    -6.41522
    -6.41414    -6.41352    -6.38866    -6.38842    -6.38821    -5.54185
    -5.53961    -5.11373    -5.11247    -5.11104    -3.85167    -3.85144
    -3.85104    -3.84942    -3.84900    -3.84896    -1.45994    -1.36966
    -1.36752    -1.25310    -1.23526    -1.22259    -1.18969    -1.13951
    -1.11002    -1.10808    -1.09454    -1.08873    -1.06551    -0.99372
    -0.98282    -0.97181    -0.96829    -0.94709    -0.94441    -0.94380
    -0.93821    -0.93308    -0.93228    -0.92703    -0.92304    -0.91252
    -0.90458    -0.89190    -0.89170    -0.87895    -0.85478    -0.85232
    -0.84689    -0.84190    -0.83971    -0.83921    -0.83730    -0.83611
    -0.83607    -0.83095    -0.83039    -0.82988    -0.82901    -0.82650
    -0.82513    -0.82438    -0.82260    -0.81975    -0.81920    -0.81421
    -0.80236    -0.76411    -0.75553    -0.74150    -0.73368    -0.71616
    -0.71119    -0.70597    -0.70196    -0.69880    -0.69284    -0.68679
    -0.68524    -0.68396    -0.68323    -0.68065    -0.67762    -0.67499
    -0.67422    -0.67367    -0.67234    -0.66970    -0.66522    -0.66397
    -0.66252    -0.66213    -0.66113    -0.65671    -0.65526    -0.65390
    -0.65267    -0.64338    -0.63964    -0.62798    -0.61445    -0.60917
    -0.60755    -0.60343    -0.60067    -0.58847    -0.58296    -0.58227
    -0.58217    -0.57984    -0.57629    -0.57561    -0.57292    -0.57080
    -0.56799    -0.56547    -0.56120    -0.56031    -0.55448    -0.55273
    -0.54891    -0.54487    -0.54216    -0.53976    -0.53752    -0.53659
    -0.53210    -0.52891    -0.52730    -0.52506    -0.52320    -0.51988
    -0.51978    -0.51575    -0.51510    -0.51346    -0.51134    -0.51128
    -0.51029    -0.50729    -0.50534    -0.50461    -0.50415    -0.50125
    -0.49961    -0.49945    -0.49827    -0.49686    -0.49634    -0.49538
    -0.49408    -0.49304    -0.49231    -0.49065    -0.48990    -0.48888
    -0.48541    -0.48410    -0.48287    -0.48244    -0.48228    -0.47593
    -0.47398    -0.47291    -0.46936    -0.46806    -0.46548    -0.46246
    -0.46157    -0.45579    -0.45200    -0.45095    -0.44819    -0.44700
    -0.44554    -0.44250    -0.43822    -0.43663    -0.43376    -0.43330
    -0.42866    -0.42708    -0.42621    -0.42453    -0.42175    -0.42119
    -0.41952    -0.41821    -0.41411    -0.41124    -0.41001    -0.40683
    -0.40448    -0.40278    -0.39885    -0.39675    -0.39515    -0.39449
    -0.39298    -0.39248    -0.39085    -0.38929    -0.38805    -0.38500
    -0.38446    -0.38224    -0.38071    -0.37835    -0.37742    -0.37163
    -0.36549    -0.36353    -0.35815    -0.35244    -0.35030    -0.34738
    -0.34362    -0.34199    -0.34158    -0.33989    -0.33783    -0.33383
    -0.33175    -0.33041    -0.32712    -0.31832    -0.31249    -0.30452
    -0.30352    -0.30312    -0.30150    -0.29967    -0.29819    -0.29409
    -0.29168    -0.29117    -0.28955    -0.28800    -0.28698    -0.28651
    -0.28274    -0.28194    -0.27492    -0.25672    -0.06379    -0.02295
    -0.02159    -0.00456    -0.00292     0.00752     0.01509     0.01650
     0.01810     0.01988
 
  Peak memory usage:   1029 Mb
  
  end of program scf
   
 Time(scf)  user:     2670.0  user+sys:     2670.0  wallclock:    11037.5
  
  start of program sole
  
    SCRF                   solvation energy
  iteration          Hartrees            kcal/mol
     0               0.0000000            0.0000
     1              -0.0176117          -11.0515
     2              -0.0187466          -11.7637
     3              -0.0189587          -11.8968
  
  solvation energy not yet converged... 
  
  Peak memory usage:    813 Mb
  
  end of program sole
   
 Time(sole)  user:        0.2  user+sys:        0.2  wallclock:        0.5
  
  start of program ch
  
[...]
       t  p  i  c  r                                 RMS    maximum
       e  d  i  u  i                       energy  density   DIIS  
       r  t  s  t  d       total energy    change  change    error 
  
etot    1  N  N  1  U   -5575.59254575877           1.4E-05  3.4E-04
etot    2  N  Y  1  U   -5575.59241166942 -1.3E-04  9.3E-06  6.1E-04
etot    3  N  Y  1  U   -5575.59260974191  2.0E-04  2.7E-07  1.4E-05
etot    4  N  N  1  U   -5575.59261029862  5.6E-07  0.0E+00  0.0E+00
  
  
 Energy components, in hartrees:
   (A)  Total zero-electron terms....   20912.35247811958
   (B)    Nuclear-nuclear............   20909.11837415441
   (C)    Nuclear-solvent............       3.23410396517
   (E)  Total one-electron terms.....  -49350.95798100361
   (F)    Electron-nuclear...........  -54883.74203179395
   (G)    Electron-solvent...........      -3.27458764856
   (H)    Kinetic....................    5536.05863843890
   (I)  Total two-electron terms.....   22863.01289258540
   (J)    Coulomb....................   23514.28678072183
   (K)    Exchange+Correlation.......    -651.27388813643
   (L)  Electronic energy............  -26487.94508841820  (E+I)
   (N)  Total quantum mech. energy...   -5575.59261029862  (A+L)
   (O)  Gas phase energy.............   -5575.55340341329
   (P)  Solution phase energy........   -5575.57236845693  (Q+R+S)
   (Q)    Total solute energy........   -5575.55212661524  (N-C-G)
   (R)    Total solvent energy.......      -0.02024184169  (C/2+G/2)
   (S)    Solute cavity energy.......       0.00000000000
   (U)  Reorganization energy........       0.00127679806  (Q-O)
   (V)  Solvation energy.............      -0.01896504364  (P-O)
  
 SCFE:  Solution phase energy: DFT(m06-2x)      -5575.57236845693 hartrees
        SCF iterations:   4
  
 
 HOMO energy:    -0.25642
 LUMO energy:    -0.06322
 
  Orbital energies (hartrees): 
   -90.18135   -90.15769   -78.21482   -67.01009   -67.00747   -25.29386
   -25.29277   -25.29169   -19.69211   -19.69126   -19.66119   -19.65804
   -19.63452   -19.62958   -19.61228   -14.81876   -14.81851   -14.79430
   -14.74530   -10.80996   -10.66121   -10.63680   -10.62912   -10.62219
   -10.61522   -10.60893   -10.59715   -10.59125   -10.59047   -10.58240
   -10.58154   -10.57511   -10.57343   -10.57079   -10.56904   -10.56843
   -10.56832   -10.56468   -10.56420   -10.56348   -10.56289   -10.56250
   -10.56059   -10.56023   -10.55959   -10.55860   -10.55467   -10.55429
   -10.55360   -10.55304   -10.55293   -10.55283   -10.55261   -10.55259
   -10.55168   -10.55167   -10.55134   -10.55120   -10.55091   -10.55041
   -10.55005   -10.54974   -10.54966   -10.54903   -10.54888   -10.54853
   -10.54839   -10.54797   -10.54697   -10.54595   -10.54558   -10.54427
   -10.54354   -10.54317   -10.54205   -10.54131   -10.54127   -10.54113
   -10.53887   -10.53848   -10.53795   -10.53753   -10.53718   -10.53689
   -10.53575   -10.53485   -10.53443   -10.53396   -10.53325   -10.52893
   -10.52629   -10.52593    -8.49167    -8.46628    -6.99423    -6.41389
    -6.41281    -6.41218    -6.38810    -6.38786    -6.38765    -5.54103
    -5.53876    -5.11283    -5.11157    -5.11014    -3.85084    -3.85061
    -3.85021    -3.84857    -3.84814    -3.84811    -1.45979    -1.36959
    -1.36728    -1.25248    -1.23445    -1.22212    -1.18882    -1.13916
    -1.10988    -1.10776    -1.09407    -1.08752    -1.06376    -0.99289
    -0.98245    -0.97144    -0.96813    -0.94695    -0.94425    -0.94370
    -0.93793    -0.93254    -0.93211    -0.92714    -0.92285    -0.91229
    -0.90393    -0.89185    -0.89156    -0.87843    -0.85462    -0.85214
    -0.84662    -0.84161    -0.83956    -0.83917    -0.83711    -0.83599
    -0.83594    -0.83074    -0.83013    -0.82966    -0.82877    -0.82625
    -0.82482    -0.82423    -0.82215    -0.81955    -0.81866    -0.81354
    -0.80206    -0.76357    -0.75494    -0.74118    -0.73327    -0.71555
    -0.71080    -0.70564    -0.70159    -0.69846    -0.69251    -0.68664
    -0.68516    -0.68375    -0.68305    -0.68042    -0.67741    -0.67479
    -0.67414    -0.67348    -0.67208    -0.66940    -0.66508    -0.66364
    -0.66236    -0.66179    -0.66079    -0.65652    -0.65479    -0.65337
    -0.65222    -0.64332    -0.63922    -0.62752    -0.61398    -0.60889
    -0.60698    -0.60311    -0.60034    -0.58805    -0.58281    -0.58208
    -0.58178    -0.57967    -0.57605    -0.57536    -0.57276    -0.57042
    -0.56767    -0.56524    -0.56102    -0.56007    -0.55404    -0.55233
    -0.54852    -0.54449    -0.54185    -0.53953    -0.53720    -0.53635
    -0.53186    -0.52857    -0.52703    -0.52485    -0.52298    -0.51975
    -0.51951    -0.51552    -0.51487    -0.51322    -0.51109    -0.51093
    -0.51003    -0.50696    -0.50518    -0.50435    -0.50398    -0.50106
    -0.49941    -0.49919    -0.49804    -0.49642    -0.49603    -0.49508
    -0.49394    -0.49290    -0.49190    -0.49046    -0.48972    -0.48849
    -0.48529    -0.48397    -0.48271    -0.48234    -0.48206    -0.47568
    -0.47370    -0.47269    -0.46929    -0.46795    -0.46520    -0.46246
    -0.46144    -0.45558    -0.45179    -0.45075    -0.44795    -0.44673
    -0.44538    -0.44211    -0.43789    -0.43622    -0.43349    -0.43294
    -0.42833    -0.42687    -0.42598    -0.42440    -0.42144    -0.42084
    -0.41919    -0.41789    -0.41387    -0.41088    -0.40975    -0.40657
    -0.40427    -0.40247    -0.39860    -0.39619    -0.39490    -0.39431
    -0.39277    -0.39233    -0.39053    -0.38895    -0.38772    -0.38466
    -0.38412    -0.38209    -0.38031    -0.37793    -0.37699    -0.37129
    -0.36522    -0.36322    -0.35772    -0.35201    -0.34935    -0.34696
    -0.34318    -0.34164    -0.34108    -0.33950    -0.33734    -0.33331
    -0.33127    -0.33003    -0.32681    -0.31789    -0.31236    -0.30442
    -0.30333    -0.30290    -0.30131    -0.29952    -0.29792    -0.29378
    -0.29132    -0.29083    -0.28927    -0.28763    -0.28659    -0.28605
    -0.28244    -0.28151    -0.27470    -0.25642    -0.06322    -0.02246
    -0.02130    -0.00435    -0.00264     0.00784     0.01538     0.01677
     0.01836     0.02015
 
  Peak memory usage:   1029 Mb
  
  end of program scf
   
 Time(scf)  user:     7703.2  user+sys:     7703.2  wallclock:    15183.3
  
  start of program sole
  
    SCRF                   solvation energy
  iteration          Hartrees            kcal/mol
     0               0.0000000            0.0000
     1              -0.0176117          -11.0515
     2              -0.0187466          -11.7637
     3              -0.0189587          -11.8968
     4              -0.0187610          -11.7727
     5              -0.0189650          -11.9007
  
  solvation energy not yet converged... 
  
  Peak memory usage:    813 Mb
  
  end of program sole
   
 Time(sole)  user:        0.1  user+sys:        0.1  wallclock:        0.1
  
  start of program ch
  
  gridpoints used for charge fit        16491
    out of a possible maximum of        16491
  
   Electrostatic potential fitting constrained to reproduce
     total charge:                yes
     dipole moment:               no 
     traceless quadrupole moment: no 
     traceless octapole moment:   no 
  
  Atomic charges from electrostatic potential: 
   
 Atom       C1           C2           C3           C4           H5      
 Charge   -0.12600     -0.45784      0.13119      0.05895      0.20842
   
 Atom       C6           C7           C8           C9           H10     
 Charge   -0.36922     -0.04148      0.18362     -0.10916      0.19488
   
 Atom       C11          C12          C13          C14          C15     
 Charge    0.07595      0.25638     -0.26642     -0.10655     -0.17677
   
 Atom       C16          H17          H18          H19          H20     
 Charge   -0.12326      0.15999      0.13868      0.15458      0.10332
   
 Atom       C21          C22          C23          C24          C25     
 Charge    0.17031      0.19433     -0.24249     -0.14872     -0.12993
   
 Atom       C26          H27          H28          H29          H30     
 Charge   -0.25020      0.15540      0.15323      0.14540      0.16231
   
 Atom       Si31         Si32         C33          C34          C35     
 Charge   -0.08409      0.26420     -0.16235     -0.12765     -0.16784
   
 Atom       C36          C37          C38          H39          H40     
 Charge    0.20231     -0.20056     -0.11474      0.13504      0.13442
   
 Atom       H41          H42          H43          C44          C45     
 Charge    0.11370      0.14073      0.12676     -0.17836     -0.10812
   
 Atom       C46          C47          C48          C49          H50     
 Charge   -0.22745      0.19490     -0.23318     -0.09566      0.14539
   
 Atom       H51          H52          H53          H54          C55     
 Charge    0.13437      0.14704      0.11512      0.13567     -0.15775
   
 Atom       C56          C57          C58          C59          C60     
 Charge   -0.14812     -0.13762     -0.01898     -0.09714     -0.09493
   
 Atom       H61          H62          H63          H64          H65     
 Charge    0.14343      0.13752      0.13331      0.04328      0.10659
   
 Atom       C66          C67          C68          C69          C70     
 Charge   -0.11989     -0.17333     -0.05052     -0.09118     -0.12318
   
 Atom       C71          H72          H73          H74          H75     
 Charge   -0.13956      0.13403      0.14483      0.07455      0.12604
   
 Atom       H76          C77          C78          C79          C80     
 Charge    0.13215     -0.03738     -0.30219      0.04495      0.04926
   
 Atom       C81          C82          H83          H84          H85     
 Charge   -0.31121     -0.08653      0.09616      0.16636      0.06251
   
 Atom       H86          H87          C88          C89          C90     
 Charge    0.18999      0.11192     -0.03854     -0.22619     -0.04046
   
 Atom       C91          C92          C93          H94          H95     
 Charge   -0.20066      0.15183     -0.28419      0.11181      0.14889
   
 Atom       H96          H97          H98          O99          O100    
 Charge    0.10695     -0.04331      0.15838     -0.17349     -0.19093
   
 Atom       P101         O102         N103         H104         C105    
 Charge    0.76370     -0.48368     -0.32536      0.37092     -0.08391
   
 Atom       C106         C107         C108         C109         C110    
 Charge   -0.07115     -0.19937     -0.14888      0.15439      0.02882
   
 Atom       C111         H112         H113         H114         H115    
 Charge   -0.21838      0.14164      0.16394      0.18027      0.00286
   
 Atom       H116         H117         N118         S119         O120    
 Charge    0.14424      0.22211     -0.50402      0.44139     -0.37000
   
 Atom       O121         C122         F123         F124         F125    
 Charge   -0.43929      0.49898     -0.12456     -0.13958     -0.15038
   
 Atom       C126         C127         C128         C129         N130    
 Charge    0.05818     -0.22987     -0.23202     -0.11103      0.17357
   
 Atom       H131         H132         H133         H134         H135    
 Charge    0.07168      0.21522      0.19382      0.16296      0.15533
   
 Atom       S136         O137         O138         C139         C140    
 Charge    0.57259     -0.40551     -0.44286     -0.42158      0.36828
   
 Atom       N141         C142         C143         C144         H145    
 Charge   -0.59097      0.58864     -0.47046      0.18883      0.20493
   
 Atom       H146         H147         H148    
 Charge    0.07712      0.21878      0.12370
  
  sum of atomic charges:     0.000000
   
 RMS Error   9.85E-04 hartrees
 
  Peak memory usage:    816 Mb
  
  end of program ch
   
 Time(ch)  user:       17.9  user+sys:       17.9  wallclock:       20.3
  
  start of program post
  
  Writing input files for PBF
  Peak memory usage:    759 Mb
  
  end of program post
   
 Time(post)  user:        0.7  user+sys:        0.7  wallclock:        1.1

  start of program pbf

Pbf Version 4.10

Molecular surface area:      844.58813   [A2]
Reaction field energy:       -19.43518   [kT]
  Peak memory usage: 721 Mb

  end of program pbf

 Time(pbf)  user:        7.4  user+sys:        7.4  wallclock:        7.7
  
  start of program solv
  
   number of surface charges from PBF   13306
   sum of surface charges     -0.00026
   
  nuclear repulsion energy.......   20909.118374154 hartrees
  Peak memory usage:    894 Mb
  
  end of program solv
   
 Time(solv)  user:       34.2  user+sys:       34.2  wallclock:       35.2
  
  start of program scf
  
 Energy computed with NOPS off.
  
       i  u  d  i  g                   
       t  p  i  c  r                                 RMS    maximum
       e  d  i  u  i                       energy  density   DIIS  
       r  t  s  t  d       total energy    change  change    error 
  
etot    1  N  N  1  U   -5575.59252374297           7.9E-07  2.0E-05
etot    2  N  N  1  U   -5575.59252383016  8.7E-08  0.0E+00  0.0E+00
  
  
 Energy components, in hartrees:
   (A)  Total zero-electron terms....   20912.32586692991
   (B)    Nuclear-nuclear............   20909.11837415441
   (C)    Nuclear-solvent............       3.20749277550
   (E)  Total one-electron terms.....  -49350.89665039921
   (F)    Electron-nuclear...........  -54883.70675021976
   (G)    Electron-solvent...........      -3.24786136572
   (H)    Kinetic....................    5536.05796118627
   (I)  Total two-electron terms.....   22862.97825963914
   (J)    Coulomb....................   23514.25203208784
   (K)    Exchange+Correlation.......    -651.27377244870
   (L)  Electronic energy............  -26487.91839076007  (E+I)
   (N)  Total quantum mech. energy...   -5575.59252383016  (A+L)
   (O)  Gas phase energy.............   -5575.55340341329
   (P)  Solution phase energy........   -5575.57233953505  (Q+R+S)
   (Q)    Total solute energy........   -5575.55215523994  (N-C-G)
   (R)    Total solvent energy.......      -0.02018429511  (C/2+G/2)
   (S)    Solute cavity energy.......       0.00000000000
   (U)  Reorganization energy........       0.00124817335  (Q-O)
   (V)  Solvation energy.............      -0.01893612176  (P-O)
  
 SCFE:  Solution phase energy: DFT(m06-2x)      -5575.57233953505 hartrees
        SCF iterations:   2
  
 
 HOMO energy:    -0.25644
 LUMO energy:    -0.06326
 
  Orbital energies (hartrees): 
   -90.18142   -90.15769   -78.21484   -67.01021   -67.00745   -25.29382
   -25.29275   -25.29169   -19.69211   -19.69131   -19.66096   -19.65836
   -19.63453   -19.62963   -19.61233   -14.81887   -14.81855   -14.79465
   -14.74526   -10.80994   -10.66134   -10.63694   -10.62919   -10.62219
   -10.61513   -10.60899   -10.59720   -10.59110   -10.59035   -10.58226
   -10.58167   -10.57516   -10.57346   -10.57084   -10.56907   -10.56847
   -10.56833   -10.56481   -10.56414   -10.56351   -10.56290   -10.56244
   -10.56062   -10.56022   -10.55952   -10.55871   -10.55465   -10.55431
   -10.55355   -10.55305   -10.55296   -10.55287   -10.55258   -10.55253
   -10.55160   -10.55159   -10.55131   -10.55128   -10.55083   -10.55036
   -10.55002   -10.54968   -10.54968   -10.54905   -10.54885   -10.54854
   -10.54831   -10.54798   -10.54695   -10.54595   -10.54552   -10.54423
   -10.54350   -10.54315   -10.54208   -10.54140   -10.54129   -10.54113
   -10.53883   -10.53848   -10.53797   -10.53755   -10.53716   -10.53690
   -10.53565   -10.53500   -10.53457   -10.53398   -10.53325   -10.52895
   -10.52619   -10.52604    -8.49175    -8.46628    -6.99425    -6.41396
    -6.41288    -6.41225    -6.38810    -6.38785    -6.38764    -5.54114
    -5.53875    -5.11285    -5.11159    -5.11016    -3.85096    -3.85073
    -3.85033    -3.84855    -3.84813    -3.84810    -1.45977    -1.36956
    -1.36726    -1.25253    -1.23447    -1.22212    -1.18885    -1.13920
    -1.10989    -1.10778    -1.09411    -1.08764    -1.06385    -0.99289
    -0.98248    -0.97148    -0.96815    -0.94697    -0.94423    -0.94371
    -0.93791    -0.93251    -0.93213    -0.92710    -0.92285    -0.91231
    -0.90397    -0.89186    -0.89158    -0.87846    -0.85463    -0.85217
    -0.84665    -0.84160    -0.83957    -0.83918    -0.83712    -0.83599
    -0.83592    -0.83075    -0.83011    -0.82968    -0.82876    -0.82624
    -0.82480    -0.82425    -0.82212    -0.81957    -0.81864    -0.81357
    -0.80208    -0.76358    -0.75497    -0.74120    -0.73328    -0.71558
    -0.71082    -0.70566    -0.70163    -0.69846    -0.69253    -0.68663
    -0.68518    -0.68374    -0.68307    -0.68041    -0.67739    -0.67479
    -0.67414    -0.67348    -0.67211    -0.66938    -0.66509    -0.66364
    -0.66238    -0.66178    -0.66078    -0.65654    -0.65477    -0.65340
    -0.65224    -0.64333    -0.63924    -0.62754    -0.61402    -0.60890
    -0.60700    -0.60311    -0.60035    -0.58806    -0.58282    -0.58209
    -0.58180    -0.57967    -0.57606    -0.57536    -0.57277    -0.57040
    -0.56768    -0.56523    -0.56101    -0.56007    -0.55408    -0.55236
    -0.54853    -0.54451    -0.54187    -0.53953    -0.53720    -0.53636
    -0.53186    -0.52857    -0.52704    -0.52486    -0.52298    -0.51976
    -0.51952    -0.51551    -0.51487    -0.51324    -0.51110    -0.51096
    -0.51003    -0.50696    -0.50520    -0.50436    -0.50396    -0.50107
    -0.49943    -0.49918    -0.49806    -0.49646    -0.49604    -0.49508
    -0.49395    -0.49289    -0.49191    -0.49045    -0.48974    -0.48847
    -0.48530    -0.48398    -0.48271    -0.48234    -0.48207    -0.47567
    -0.47369    -0.47270    -0.46927    -0.46795    -0.46522    -0.46244
    -0.46145    -0.45561    -0.45178    -0.45076    -0.44796    -0.44675
    -0.44540    -0.44209    -0.43791    -0.43625    -0.43351    -0.43296
    -0.42834    -0.42688    -0.42597    -0.42441    -0.42146    -0.42083
    -0.41922    -0.41788    -0.41386    -0.41090    -0.40976    -0.40658
    -0.40429    -0.40247    -0.39861    -0.39624    -0.39492    -0.39432
    -0.39278    -0.39231    -0.39055    -0.38897    -0.38773    -0.38466
    -0.38413    -0.38211    -0.38031    -0.37793    -0.37701    -0.37132
    -0.36522    -0.36323    -0.35775    -0.35204    -0.34944    -0.34697
    -0.34324    -0.34165    -0.34107    -0.33955    -0.33732    -0.33331
    -0.33128    -0.33004    -0.32682    -0.31793    -0.31238    -0.30443
    -0.30335    -0.30289    -0.30129    -0.29953    -0.29795    -0.29376
    -0.29132    -0.29087    -0.28926    -0.28762    -0.28658    -0.28603
    -0.28246    -0.28153    -0.27470    -0.25644    -0.06326    -0.02249
    -0.02133    -0.00435    -0.00264     0.00781     0.01536     0.01676
     0.01834     0.02016
 
  Peak memory usage:   1029 Mb
  
  end of program scf
   
 Time(scf)  user:     2507.5  user+sys:     2507.5  wallclock:     2653.2
  
  start of program sole
  
    SCRF                   solvation energy
  iteration          Hartrees            kcal/mol
     0               0.0000000            0.0000
     1              -0.0176117          -11.0515
     2              -0.0187466          -11.7637
     3              -0.0189587          -11.8968
     4              -0.0187610          -11.7727
     5              -0.0189650          -11.9007
     6              -0.0189361          -11.8826
  
  stopping: solvation energy converged
  
  iterations:   6    sfinal:    -11.8826 kcal/mol
  
  Peak memory usage:    813 Mb
  
  end of program sole
   
 Time(sole)  user:        0.1  user+sys:        0.1  wallclock:        0.1
  
  start of program post
  
  Writing input files for PBF
  Peak memory usage:    759 Mb
  
  end of program post
   
 Time(post)  user:        0.7  user+sys:        0.7  wallclock:        1.0

 Total cpu seconds     user:   65002.022   user+sys:   65002.022
  
 Total elapsed time:    237051 seconds

Job Type-I-Z-sulfonyl-bind-5-unrestrained-SPE completed on tethys at Mon Mar  6 07:51:26 2017
