Command:    jaguar run jexec.py -jobname Type-I-Z-sulfonyl-bind-5-unrestrained-SPE -nsubjobs 1 Type-I-Z-sulfonyl-bind-5-unrestrained-SPE.in
[running at reduced cpu priority]
Release:    2017-1
Exec:       /usr/local/shared/schrodinger/current/jaguar-v9.5/bin/Linux-x86_64
Host:       tethys
JobId:      tethys-0-58b97700
JobDir:     /scratch/ab2144/Type-I-Z-sulfonyl-bind-5-unrestrained-SPE
Date:       Fri Mar  3 14:00:35 2017

Contents of /scratch/ab2144/Type-I-Z-sulfonyl-bind-5-unrestrained-SPE:
/scratch/ab2144/Type-I-Z-sulfonyl-bind-5-unrestrained-SPE/tethys-0-58b97700.recover
/scratch/ab2144/Type-I-Z-sulfonyl-bind-5-unrestrained-SPE/Type-I-Z-sulfonyl-bind-5-unrestrained-SPE.in
/scratch/ab2144/Type-I-Z-sulfonyl-bind-5-unrestrained-SPE/Type-I-Z-sulfonyl-bind-5-unrestrained-SPE.log
/scratch/ab2144/Type-I-Z-sulfonyl-bind-5-unrestrained-SPE/tethys-0-58b97700.nodes
/scratch/ab2144/Type-I-Z-sulfonyl-bind-5-unrestrained-SPE/tethys-0-58b97700
/scratch/ab2144/Type-I-Z-sulfonyl-bind-5-unrestrained-SPE/Type-I-Z-sulfonyl-bind-5-unrestrained-SPE.recover
/scratch/ab2144/Type-I-Z-sulfonyl-bind-5-unrestrained-SPE/Type-I-Z-sulfonyl-bind-5-unrestrained-SPE.mae

Executing subprocess:
/usr/local/shared/schrodinger/current/jaguar-v9.5/bin/Linux-x86_64/jexec Type-I-Z-sulfonyl-bind-5-unrestrained-SPE.in -cwd -out /scratch/ab2144/Type-I-Z-sulfonyl-bind-5-unrestrained-SPE

[running at reduced cpu priority]
[running at reduced cpu priority]
Job Type-I-Z-sulfonyl-bind-5-unrestrained-SPE started on tethys at Fri Mar  3 14:00:35 2017
jobid: tethys-0-58b97700 
Jaguar version 9.5, release  11
Molecular Point Group: C1      
Point Group used: C1
pre (input checking) done.
onee (1-electron integrals) done.
hfig (HF initial guess) done.
probe (project orbitals) done.
grid (grid generation) done.
rwr (Q operators) done.
scf type: DFT=M06-2X
  
       i  u  d  i  g
       t  p  i  c  r                                 RMS    maximum
       e  d  i  u  i                       energy  density   DIIS  
       r  t  s  t  d       total energy    change  change    error 
  
etot    1  N  N  1  U   -5562.75451153109           3.6E-03  1.2E-01
etot    2  N  Y  1  U   -5537.83113712362 -2.5E+01  1.6E-02  1.6E-01
etot    3  N  Y  1  U   -5319.33713413132 -2.2E+02  1.5E-02  3.9E-01
etot    4  N  Y  1  U   -5561.31455073432  2.4E+02  3.3E-03  1.1E-01
etot    5  N  Y  1  U   -5573.51564148942  1.2E+01  1.8E-03  4.4E-02
etot    6  N  Y  1  U   -5568.95237562531 -4.6E+00  1.5E-03  8.4E-02
etot    7  N  Y  1  U   -5573.94827063586  5.0E+00  8.1E-04  3.5E-02
etot    8  N  Y  1  U   -5575.53332767113  1.6E+00  1.6E-04  1.1E-02
etot    9  N  Y  1  U   -5575.54022545312  6.9E-03  7.8E-05  7.6E-03
etot   10  N  Y  1  U   -5575.55264842996  1.2E-02  2.2E-05  1.3E-03
etot   11  N  Y  1  U   -5575.55315036566  5.0E-04  1.1E-05  8.6E-04
etot   12  N  Y  1  U   -5575.55337402731  2.2E-04  4.9E-06  2.0E-04
etot   13  N  N  1  U   -5575.55340341329  2.9E-05  0.0E+00  0.0E+00
scf (DFT) done.
--------gas phase calculation complete----------------------
ch (properties) done.
post (output conversion) done.
pbf (Poisson-Boltzmann solver) done.
solv (solvation checking) done.
  
       i  u  d  i  g
       t  p  i  c  r                                 RMS    maximum
       e  d  i  u  i                       energy  density   DIIS  
       r  t  s  t  d       total energy    change  change    error 
  
etot    1  N  N  1  U   -5575.58861181039           5.0E-05  1.1E-03
etot    2  N  Y  1  U   -5575.58935482198  7.4E-04  1.6E-05  8.3E-04
etot    3  N  Y  1  U   -5575.58957871780  2.2E-04  5.5E-06  4.5E-04
etot    4  N  Y  1  U   -5575.58963148613  5.3E-05  2.4E-06  9.4E-05
etot    5  N  N  1  U   -5575.58963855798  7.1E-06  0.0E+00  0.0E+00
scf (DFT) done.
sole (solvation energy) done.
----------solvation iteration  1 complete------------------
ch (properties) done.
post (output conversion) done.
pbf (Poisson-Boltzmann solver) done.
solv (solvation checking) done.
  
       i  u  d  i  g
       t  p  i  c  r                                 RMS    maximum
       e  d  i  u  i                       energy  density   DIIS  
       r  t  s  t  d       total energy    change  change    error 
  
etot    1  N  N  1  U   -5575.59220101614           5.9E-06  1.7E-04
etot    2  N  N  1  U   -5575.59220202857  1.0E-06  0.0E+00  0.0E+00
scf (DFT) done.
sole (solvation energy) done.
----------solvation iteration  2 complete------------------
ch (properties) done.
post (output conversion) done.
pbf (Poisson-Boltzmann solver) done.
solv (solvation checking) done.
  
       i  u  d  i  g
       t  p  i  c  r                                 RMS    maximum
       e  d  i  u  i                       energy  density   DIIS  
       r  t  s  t  d       total energy    change  change    error 
  
etot    1  N  N  1  U   -5575.59253083029           5.4E-06  1.3E-04
etot    2  N  N  1  U   -5575.59251756400 -1.3E-05  0.0E+00  0.0E+00
scf (DFT) done.
sole (solvation energy) done.
----------solvation iteration  3 complete------------------
ch (properties) done.
post (output conversion) done.
pbf (Poisson-Boltzmann solver) done.
solv (solvation checking) done.
  
       i  u  d  i  g
       t  p  i  c  r                                 RMS    maximum
       e  d  i  u  i                       energy  density   DIIS  
       r  t  s  t  d       total energy    change  change    error 
  
etot    1  N  N  1  U   -5575.59240740077           8.3E-06  2.2E-04
etot    2  N  N  1  U   -5575.59235792189 -4.9E-05  0.0E+00  0.0E+00
scf (DFT) done.
sole (solvation energy) done.
----------solvation iteration  4 complete------------------
ch (properties) done.
post (output conversion) done.
pbf (Poisson-Boltzmann solver) done.
solv (solvation checking) done.
  
       i  u  d  i  g
       t  p  i  c  r                                 RMS    maximum
       e  d  i  u  i                       energy  density   DIIS  
       r  t  s  t  d       total energy    change  change    error 
  
etot    1  N  N  1  U   -5575.59254575877           1.4E-05  3.4E-04
etot    2  N  Y  1  U   -5575.59241166942 -1.3E-04  9.3E-06  6.1E-04
etot    3  N  Y  1  U   -5575.59260974191  2.0E-04  2.7E-07  1.4E-05
etot    4  N  N  1  U   -5575.59261029862  5.6E-07  0.0E+00  0.0E+00
scf (DFT) done.
sole (solvation energy) done.
----------solvation iteration  5 complete------------------
ch (properties) done.
post (output conversion) done.
pbf (Poisson-Boltzmann solver) done.
solv (solvation checking) done.
  
       i  u  d  i  g
       t  p  i  c  r                                 RMS    maximum
       e  d  i  u  i                       energy  density   DIIS  
       r  t  s  t  d       total energy    change  change    error 
  
etot    1  N  N  1  U   -5575.59252374297           7.9E-07  2.0E-05
etot    2  N  N  1  U   -5575.59252383016  8.7E-08  0.0E+00  0.0E+00
scf (DFT) done.
sole (solvation energy) done.
----final solvation iteration  6 complete------------------
post (output conversion) done.
Job Type-I-Z-sulfonyl-bind-5-unrestrained-SPE completed on tethys at Mon Mar  6 07:51:27 2017
Timer (jaguar_backend.py) : 237052.10 secs (2 days, 17 hrs, 50 mins, 52 secs)
Finished:   Mon Mar  6 07:51:27 2017
