Job Toru-NTf-Sulfonyl-4-chkp-unrestrained-uff-acc-fine-grid-sol_1 started on tethys at Tue Feb 14 12:16:48 2017
jobid: tethys-0-58a2f52f

  +--------------------------------------------------------------------+
  |  Jaguar version 8.4, release  16                                   |
  |                                                                    |
  |  Copyright Schrodinger, Inc.                                       |
  |  All Rights Reserved.                                              |
  |                                                                    |
  |  The following have contributed to Jaguar (listed alphabetically): |
  |  Mike Beachy, Art Bochevarov, Dale Braden, Yixiang Cao,            |
  |  Chris Cortis, Rich Friesner, Bill Goddard, Hod Greeley,           |
  |  Tom Hughes, Jean-Marc Langlois, Daniel Mainz, Rob Murphy,         |
  |  Dean Philipp, Tom Pollard, Murco Ringnalda.                       |
  |                                                                    |
  |  Use of this program should be acknowledged in publications as:    |
  |                                                                    |
  |  Jaguar, version 8.4, Schrodinger, Inc., New York, NY, 2013.       |
  |                                                                    |
  |  A. D. Bochevarov, E. Harder, T. F. Hughes, J. R. Greenwood,       |
  |  D. A. Braden, D. M. Philipp, D. Rinaldo, M. D. Halls,             |
  |  J. Zhang, R. A. Friesner, "Jaguar: A High-Performance Quantum     |
  |  Chemistry Software Program with Strengths in Life and Materials   |
  |  Sciences", Int. J. Quantum Chem., 2013, 113(18), 2110-2142.       |
  +--------------------------------------------------------------------+
  
  start of program pre
  
  Job name: Toru-NTf-Sulfonyl-4-chkp-unrestrained-uff-acc-fine-grid-sol_1
  Executables used: /usr/local/shared/schrodinger/current/jaguar-v84016/bin/Linux-x86_64
  Temporary files : /home/ab2144/.schrodinger/tmp/Toru-NTf-Sulfonyl-4-chkp-unrestrained-uff-acc-fine-grid-sol_1
  Maestro file (input):  Toru-NTf-Sulfonyl-4-chkp-unrestrained-uff-acc-fine-grid-sol_1.mae
  Maestro file (output): Toru-NTf-Sulfonyl-4-chkp-unrestrained-uff-acc-fine-grid-sol_1.01.mae
  
  
  basis set:             6-31g**         
  net molecular charge:    0
  multiplicity:            1
  
  keygrid settings 
    wispc.....   7.500E-01
    ldens.....   0
    denspc....   7.500E-01
  
   grid     daf set  nls  grid set  Q type
  ------    -------  ---  --------  ------
  coarse       1      1       1        1
  medium       2      2       2        1
  fine         3      2       3        0
  ultrafine    4      2       4        1
  charge       0      1      -1        1
  gradient     5      2       4        1
  density      0      1       0        0
  DFT-fine     0      1     -13        0
  DFT-med.     0      1     -13        0
  DFT-grad     0      1     -13        0
  DFT-der2     0      1       0        0
  DFT-cphf     0      1       0        0
  LMP2-enrg    4      2       4        1
  LMP2-grad    5      2       2        1
  DFT-cphf2    0      1       0        0
  PBF-dens     0      1       0        0
  plotting     0      1       0        0
  
  idftgrdm  100
  ndftgrdm   50    0    0
  idftgrdf  111
  ndftgrdf   85    0    0
  idftgrdg  111
  ndftgrdg   80    3    0
  idftgrdu  433
  ndftgrdu  105    0    0
  idftgrdd  433
  ndftgrdd  105    0    0
  idftgrdc  433
  ndftgrdc   26    0    0
  idftgrdp  433
  ndftgrdp   18    0    0
  
  number of basis functions....         1680
  
 Input geometry:
                                   angstroms
  atom               x                 y                 z
  C1            0.1101000000     -6.0253000000     -0.7908000000 
  C2           -0.8773000000     -4.9112000000     -0.7849000000 
  C3           -0.2100000000     -7.2093000000     -1.3258000000 
  C4           -2.0857000000     -5.1024000000     -1.3575000000 
  C5           -0.5434000000     -3.5769000000     -0.2046000000 
  C6           -2.4323000000     -6.4189000000     -1.9418000000 
  C7           -3.0740000000     -4.0078000000     -1.3771000000 
  C8           -1.5428000000     -7.4173000000     -1.9233000000 
  C9           -1.3796000000     -2.5326000000     -0.4065000000 
  C10           0.6966000000     -3.3856000000      0.5850000000 
  C11          -2.7615000000     -2.7958000000     -0.8930000000 
  O12          -1.0532000000     -1.2724000000      0.0370000000 
  Si13         -4.0868000000     -1.4887000000     -0.7376000000 
  C14           0.9284000000     -4.0400000000      1.7456000000 
  C15           1.7125000000     -2.4431000000      0.0555000000 
  C16           2.2435000000     -3.8910000000      2.4172000000 
  C17          -0.0837000000     -4.9029000000      2.4055000000 
  C18           3.1964000000     -3.1253000000      1.8707000000 
  C19           2.4817000000     -4.6195000000      3.6788000000 
  C20           2.9418000000     -2.3878000000      0.6107000000 
  Si21          4.3292000000     -1.3339000000     -0.0771000000 
  O22           1.3747000000     -1.6500000000     -1.0100000000 
  C23           0.2024000000     -5.5304000000      3.5524000000 
  C24           1.5222000000     -5.3888000000      4.2048000000 
  P25           0.2332000000     -0.5293000000     -0.6729000000 
  O26          -0.1126000000      0.1408000000     -1.9678000000 
  N27           0.8892000000      0.3868000000      0.5072000000 
  C28          -5.7428000000     -2.1673000000     -1.2471000000 
  C29          -4.3179000000     -0.9544000000      1.0307000000 
  C30          -3.6363000000     -0.0666000000     -1.8416000000 
  C31           4.7094000000      0.0138000000      1.1585000000 
  C32           5.8497000000     -2.3664000000     -0.4129000000 
  C33           3.8628000000     -0.5871000000     -1.7105000000 
  C34          -6.2982000000     -3.1670000000     -0.5410000000 
  C35          -6.4825000000     -1.5890000000     -2.3961000000 
  C36          -3.5871000000     -1.4805000000      2.0290000000 
  C37          -5.4051000000      0.0011000000      1.3536000000 
  C38          -3.3150000000     -0.3019000000     -3.1248000000 
  C39          -3.7323000000      1.3322000000     -1.3586000000 
  C40           5.7390000000      0.8552000000      0.9633000000 
  C41           3.8447000000      0.1976000000      2.3517000000 
  C42           5.9005000000     -3.6735000000     -0.0983000000 
  C43           7.0016000000     -1.7525000000     -1.1207000000 
  C44           3.5162000000      0.7048000000     -1.8050000000 
  C45           3.8324000000     -1.4431000000     -2.9203000000 
  C46          -7.6208000000     -3.7035000000     -0.9227000000 
  C47          -8.2779000000     -3.1861000000     -1.9671000000 
  C48          -7.6825000000     -2.0753000000     -2.7369000000 
  C49          -3.8305000000     -1.0690000000      3.4268000000 
  C50          -4.8037000000     -0.1962000000      3.7093000000 
  C51          -5.6353000000      0.3582000000      2.6224000000 
  C52          -3.1051000000      0.8241000000     -4.0572000000 
  C53          -3.2579000000      2.0825000000     -3.6311000000 
  C54          -3.5806000000      2.3487000000     -2.2150000000 
  C55           6.0260000000      1.9264000000      1.9400000000 
  C56           5.2463000000      2.0807000000      3.0150000000 
  C57           4.1004000000      1.1765000000      3.2283000000 
  C58           7.1135000000     -4.4663000000     -0.3883000000 
  C59           8.1602000000     -3.8950000000     -0.9934000000 
  C60           8.0965000000     -2.4747000000     -1.3880000000 
  C61           3.1287000000      1.2764000000     -3.1101000000 
  C62           3.1041000000      0.5020000000     -4.2009000000 
  C63           3.4705000000     -0.9254000000     -4.1007000000 
  C64           3.7527000000      5.2071000000     -2.8486000000 
  C65           2.4272000000      5.3259000000     -2.4380000000 
  C66           1.9979000000      4.7591000000     -1.2245000000 
  C67           2.9200000000      4.0608000000     -0.4292000000 
  C68           4.2493000000      3.9688000000     -0.8365000000 
  C69           4.6694000000      4.5318000000     -2.0430000000 
  C70           0.6046000000      5.0426000000     -0.7996000000 
  N71           0.2552000000      4.9626000000      0.5332000000 
  S72          -0.9696000000      6.0088000000      1.1245000000 
  O73          -0.3842000000      6.8961000000      2.1203000000 
  O74          -1.6258000000      6.5518000000     -0.0768000000 
  C75          -2.1376000000      4.8923000000      1.9448000000 
  C76          -3.3499000000      4.5974000000      1.3272000000 
  C77          -4.2303000000      3.7851000000      2.0427000000 
  C78          -3.8534000000      3.3326000000      3.3044000000 
  C79          -2.5985000000      3.6869000000      3.8046000000 
  N80          -1.7446000000      4.4650000000      3.1349000000 
  N81          -0.0427000000      2.7612000000     -2.4750000000 
  C82           0.0616000000      3.0081000000     -3.7758000000 
  C83          -0.5207000000      4.2654000000     -4.0771000000 
  C84          -1.0289000000      4.7530000000     -2.8920000000 
  C85          -0.6440000000      3.8560000000     -1.8280000000 
  H86           1.0993000000     -5.8896000000     -0.3739000000 
  H87           0.5112000000     -8.0164000000     -1.3283000000 
  H88          -3.4071000000     -6.5774000000     -2.3860000000 
  H89          -4.0617000000     -4.2143000000     -1.7646000000 
  H90          -1.7962000000     -8.3786000000     -2.3513000000 
  H91          -1.0724000000     -5.0240000000      1.9822000000 
  H92           4.1572000000     -3.0234000000      2.3621000000 
  H93           3.4356000000     -4.5371000000      4.1860000000 
  H94          -0.5497000000     -6.1519000000      4.0213000000 
  H95           1.7101000000     -5.9175000000      5.1305000000 
  H96          -5.7850000000     -3.5945000000      0.3118000000 
  H97          -6.0675000000     -0.7678000000     -2.9635000000 
  H98          -2.8276000000     -2.2242000000      1.8404000000 
  H99          -6.0250000000      0.4074000000      0.5641000000 
  H100         -3.2537000000     -1.3145000000     -3.5045000000 
  H101         -3.9408000000      1.5469000000     -0.3208000000 
  H102          6.3647000000      0.7801000000      0.0885000000 
  H103          2.9911000000     -0.4431000000      2.5180000000 
  H104          5.0640000000     -4.1782000000      0.3580000000 
  H105          6.9530000000     -0.7287000000     -1.4631000000 
  H106          3.4873000000      1.3318000000     -0.9275000000 
  H107          4.0958000000     -2.4912000000     -2.8526000000 
  H108         -8.0564000000     -4.5151000000     -0.3546000000 
  H109         -9.2474000000     -3.5770000000     -2.2476000000 
  H110         -8.2220000000     -1.6523000000     -3.5745000000 
  H111         -3.2221000000     -1.4804000000      4.2218000000 
  H112         -4.9848000000      0.1041000000      4.7331000000 
  H113         -6.4296000000      1.0556000000      2.8548000000 
  H114         -2.8571000000      0.6272000000     -5.0920000000 
  H115         -3.1307000000      2.9078000000     -4.3189000000 
  H116         -3.6767000000      3.3694000000     -1.8682000000 
  H117          6.8635000000      2.5924000000      1.7768000000 
  H118          5.4509000000      2.8694000000      3.7273000000 
  H119          3.4660000000      1.3108000000      4.0946000000 
  H120          7.1515000000     -5.5118000000     -0.1106000000 
  H121          9.0483000000     -4.4752000000     -1.2082000000 
  H122          8.9298000000     -2.0247000000     -1.9120000000 
  H123          2.8603000000      2.3210000000     -3.1804000000 
  H124          2.8155000000      0.9189000000     -5.1570000000 
  H125          3.4451000000     -1.5509000000     -4.9835000000 
  H126          4.0702000000      5.6554000000     -3.7851000000 
  H127          1.7217000000      5.8808000000     -3.0478000000 
  H128          2.6103000000      3.5984000000      0.5018000000 
  H129          4.9627000000      3.4479000000     -0.2087000000 
  H130          5.7076000000      4.4478000000     -2.3496000000 
  H131          0.2307000000      5.9656000000     -1.2224000000 
  H132         -3.5895000000      4.9962000000      0.3494000000 
  H133         -5.1938000000      3.5164000000      1.6212000000 
  H134         -4.5159000000      2.7170000000      3.9017000000 
  H135         -2.2658000000      3.3339000000      4.7763000000 
  H136          0.0734000000      1.7939000000     -2.0853000000 
  H137          0.5096000000      2.2840000000     -4.4430000000 
  H138         -0.5592000000      4.7232000000     -5.0550000000 
  H139         -1.5483000000      5.6877000000     -2.7280000000 
  H140         -1.2602000000      3.6021000000     -0.9744000000 
  S141          0.1002000000      1.4087000000      1.3995000000 
  O142         -1.2372000000      1.8106000000      0.9107000000 
  C143         -0.2158000000      0.4869000000      3.0129000000 
  O144          0.9875000000      2.5234000000      1.8271000000 
  F145         -1.2586000000      1.0372000000      3.6533000000 
  F146         -0.4940000000     -0.7992000000      2.7787000000 
  F147          0.8545000000      0.5532000000      3.8069000000 
  H148          0.5294000000      4.1637000000      1.1297000000 
   
  principal moments of inertia:
        amu*angstrom^2:    21760.06610    23549.62705    32505.93450
                g*cm^2: 3.61334354E-36 3.91050709E-36 5.39773674E-36
   
  rotational constants:
               cm^(-1):      0.00077470      0.00071583      0.00051860
                   GHz:      0.02322507      0.02146017      0.01554728
   
  Molecular weight:    1308.28 amu
   
  Stoichiometry: Si2C73PN4H56S2O7F3
  Molecular Point Group: C1      
  Point Group used: C1
  
  nuclear repulsion energy.......   20833.844279411 hartrees
 
 Non-default options chosen:
   SCF calculation type: DFT(m06-2x)                 
   DFT=M06-2X
   Solvation energy will be computed using PBF
     -solute cavity energy will not be included
     -surface area terms will not be included
   Highest accuracy cutoffs used in SCF
   Solvent: other                                                           
   Internal dielectric constant:    1.000
   Continuum dielectric constant:   2.380
   Solvent probe molecule radius:   2.760
  
 Temporary integer options set:
     73=  2
  
   Fixing number of canonical orbitals to remain constant.
   Number of canonical orbitals to use:  1673
  
  atom       vdw   vdw2    cov     mass  grid  daf  charge   basis
  C1        1.949  1.900  0.770   12.000    Y    Y      Y    6-31g**
  C2        1.949  1.900  0.770   12.000    Y    Y      Y    6-31g**
  C3        1.949  1.900  0.770   12.000    Y    Y      Y    6-31g**
  C4        1.949  1.900  0.770   12.000    Y    Y      Y    6-31g**
  C5        1.949  1.900  0.770   12.000    Y    Y      Y    6-31g**
  C6        1.949  1.900  0.770   12.000    Y    Y      Y    6-31g**
  C7        1.949  1.900  0.770   12.000    Y    Y      Y    6-31g**
  C8        1.949  1.900  0.770   12.000    Y    Y      Y    6-31g**
  C9        1.949  1.900  0.770   12.000    Y    Y      Y    6-31g**
  C10       1.949  1.900  0.770   12.000    Y    Y      Y    6-31g**
  C11       1.949  1.900  0.770   12.000    Y    Y      Y    6-31g**
  O12       1.702  1.600  0.730   15.995    Y    Y      Y    6-31g**
  Si13      2.217  2.147  1.110   27.977    Y    Y      Y    6-31g**
  C14       1.949  1.900  0.770   12.000    Y    Y      Y    6-31g**
  C15       1.949  1.900  0.770   12.000    Y    Y      Y    6-31g**
  C16       1.949  1.900  0.770   12.000    Y    Y      Y    6-31g**
  C17       1.949  1.900  0.770   12.000    Y    Y      Y    6-31g**
  C18       1.949  1.900  0.770   12.000    Y    Y      Y    6-31g**
  C19       1.949  1.900  0.770   12.000    Y    Y      Y    6-31g**
  C20       1.949  1.900  0.770   12.000    Y    Y      Y    6-31g**
  Si21      2.217  2.147  1.110   27.977    Y    Y      Y    6-31g**
  O22       1.702  1.600  0.730   15.995    Y    Y      Y    6-31g**
  C23       1.949  1.900  0.770   12.000    Y    Y      Y    6-31g**
  C24       1.949  1.900  0.770   12.000    Y    Y      Y    6-31g**
  P25       2.147  2.074  1.060   30.974    Y    Y      Y    6-31g**
  O26       1.702  1.600  0.730   15.995    Y    Y      Y    6-31g**
  N27       1.831  1.600  0.750   14.003    Y    Y      Y    6-31g**
  C28       1.949  1.900  0.770   12.000    Y    Y      Y    6-31g**
  C29       1.949  1.900  0.770   12.000    Y    Y      Y    6-31g**
  C30       1.949  1.900  0.770   12.000    Y    Y      Y    6-31g**
  C31       1.949  1.900  0.770   12.000    Y    Y      Y    6-31g**
  C32       1.949  1.900  0.770   12.000    Y    Y      Y    6-31g**
  C33       1.949  1.900  0.770   12.000    Y    Y      Y    6-31g**
  C34       1.949  1.900  0.770   12.000    Y    Y      Y    6-31g**
  C35       1.949  1.900  0.770   12.000    Y    Y      Y    6-31g**
  C36       1.949  1.900  0.770   12.000    Y    Y      Y    6-31g**
  C37       1.949  1.900  0.770   12.000    Y    Y      Y    6-31g**
  C38       1.949  1.900  0.770   12.000    Y    Y      Y    6-31g**
  C39       1.949  1.900  0.770   12.000    Y    Y      Y    6-31g**
  C40       1.949  1.900  0.770   12.000    Y    Y      Y    6-31g**
  C41       1.949  1.900  0.770   12.000    Y    Y      Y    6-31g**
  C42       1.949  1.900  0.770   12.000    Y    Y      Y    6-31g**
  C43       1.949  1.900  0.770   12.000    Y    Y      Y    6-31g**
  C44       1.949  1.900  0.770   12.000    Y    Y      Y    6-31g**
  C45       1.949  1.900  0.770   12.000    Y    Y      Y    6-31g**
  C46       1.949  1.900  0.770   12.000    Y    Y      Y    6-31g**
  C47       1.949  1.900  0.770   12.000    Y    Y      Y    6-31g**
  C48       1.949  1.900  0.770   12.000    Y    Y      Y    6-31g**
  C49       1.949  1.900  0.770   12.000    Y    Y      Y    6-31g**
  C50       1.949  1.900  0.770   12.000    Y    Y      Y    6-31g**
  C51       1.949  1.900  0.770   12.000    Y    Y      Y    6-31g**
  C52       1.949  1.900  0.770   12.000    Y    Y      Y    6-31g**
  C53       1.949  1.900  0.770   12.000    Y    Y      Y    6-31g**
  C54       1.949  1.900  0.770   12.000    Y    Y      Y    6-31g**
  C55       1.949  1.900  0.770   12.000    Y    Y      Y    6-31g**
  C56       1.949  1.900  0.770   12.000    Y    Y      Y    6-31g**
  C57       1.949  1.900  0.770   12.000    Y    Y      Y    6-31g**
  C58       1.949  1.900  0.770   12.000    Y    Y      Y    6-31g**
  C59       1.949  1.900  0.770   12.000    Y    Y      Y    6-31g**
  C60       1.949  1.900  0.770   12.000    Y    Y      Y    6-31g**
  C61       1.949  1.900  0.770   12.000    Y    Y      Y    6-31g**
  C62       1.949  1.900  0.770   12.000    Y    Y      Y    6-31g**
  C63       1.949  1.900  0.770   12.000    Y    Y      Y    6-31g**
  C64       1.949  1.900  0.770   12.000    Y    Y      Y    6-31g**
  C65       1.949  1.900  0.770   12.000    Y    Y      Y    6-31g**
  C66       1.949  1.900  0.770   12.000    Y    Y      Y    6-31g**
  C67       1.949  1.900  0.770   12.000    Y    Y      Y    6-31g**
  C68       1.949  1.900  0.770   12.000    Y    Y      Y    6-31g**
  C69       1.949  1.900  0.770   12.000    Y    Y      Y    6-31g**
  C70       1.949  1.900  0.770   12.000    Y    Y      Y    6-31g**
  N71       1.831  1.600  0.750   14.003    Y    Y      Y    6-31g**
  S72       2.070  1.900  1.020   31.972    Y    Y      Y    6-31g**
  O73       1.702  1.600  0.730   15.995    Y    Y      Y    6-31g**
  O74       1.702  1.600  0.730   15.995    Y    Y      Y    6-31g**
  C75       1.949  1.900  0.770   12.000    Y    Y      Y    6-31g**
  C76       1.949  1.900  0.770   12.000    Y    Y      Y    6-31g**
  C77       1.949  1.900  0.770   12.000    Y    Y      Y    6-31g**
  C78       1.949  1.900  0.770   12.000    Y    Y      Y    6-31g**
  C79       1.949  1.900  0.770   12.000    Y    Y      Y    6-31g**
  N80       1.831  1.600  0.750   14.003    Y    Y      Y    6-31g**
  N81       1.831  1.600  0.750   14.003    Y    Y      Y    6-31g**
  C82       1.949  1.900  0.770   12.000    Y    Y      Y    6-31g**
  C83       1.949  1.900  0.770   12.000    Y    Y      Y    6-31g**
  C84       1.949  1.900  0.770   12.000    Y    Y      Y    6-31g**
  C85       1.949  1.900  0.770   12.000    Y    Y      Y    6-31g**
  H86       1.597  1.150  0.320    1.008    Y    Y      Y    6-31g**
  H87       1.597  1.150  0.320    1.008    Y    Y      Y    6-31g**
  H88       1.597  1.150  0.320    1.008    Y    Y      Y    6-31g**
  H89       1.597  1.150  0.320    1.008    Y    Y      Y    6-31g**
  H90       1.597  1.150  0.320    1.008    Y    Y      Y    6-31g**
  H91       1.597  1.150  0.320    1.008    Y    Y      Y    6-31g**
  H92       1.597  1.150  0.320    1.008    Y    Y      Y    6-31g**
  H93       1.597  1.150  0.320    1.008    Y    Y      Y    6-31g**
  H94       1.597  1.150  0.320    1.008    Y    Y      Y    6-31g**
  H95       1.597  1.150  0.320    1.008    Y    Y      Y    6-31g**
  H96       1.597  1.150  0.320    1.008    Y    Y      Y    6-31g**
  H97       1.597  1.150  0.320    1.008    Y    Y      Y    6-31g**
  H98       1.597  1.150  0.320    1.008    Y    Y      Y    6-31g**
  H99       1.597  1.150  0.320    1.008    Y    Y      Y    6-31g**
  H100      1.597  1.150  0.320    1.008    Y    Y      Y    6-31g**
  H101      1.597  1.150  0.320    1.008    Y    Y      Y    6-31g**
  H102      1.597  1.150  0.320    1.008    Y    Y      Y    6-31g**
  H103      1.597  1.150  0.320    1.008    Y    Y      Y    6-31g**
  H104      1.597  1.150  0.320    1.008    Y    Y      Y    6-31g**
  H105      1.597  1.150  0.320    1.008    Y    Y      Y    6-31g**
  H106      1.597  1.150  0.320    1.008    Y    Y      Y    6-31g**
  H107      1.597  1.150  0.320    1.008    Y    Y      Y    6-31g**
  H108      1.597  1.150  0.320    1.008    Y    Y      Y    6-31g**
  H109      1.597  1.150  0.320    1.008    Y    Y      Y    6-31g**
  H110      1.597  1.150  0.320    1.008    Y    Y      Y    6-31g**
  H111      1.597  1.150  0.320    1.008    Y    Y      Y    6-31g**
  H112      1.597  1.150  0.320    1.008    Y    Y      Y    6-31g**
  H113      1.597  1.150  0.320    1.008    Y    Y      Y    6-31g**
  H114      1.597  1.150  0.320    1.008    Y    Y      Y    6-31g**
  H115      1.597  1.150  0.320    1.008    Y    Y      Y    6-31g**
  H116      1.597  1.150  0.320    1.008    Y    Y      Y    6-31g**
  H117      1.597  1.150  0.320    1.008    Y    Y      Y    6-31g**
  H118      1.597  1.150  0.320    1.008    Y    Y      Y    6-31g**
  H119      1.597  1.150  0.320    1.008    Y    Y      Y    6-31g**
  H120      1.597  1.150  0.320    1.008    Y    Y      Y    6-31g**
  H121      1.597  1.150  0.320    1.008    Y    Y      Y    6-31g**
  H122      1.597  1.150  0.320    1.008    Y    Y      Y    6-31g**
  H123      1.597  1.150  0.320    1.008    Y    Y      Y    6-31g**
  H124      1.597  1.150  0.320    1.008    Y    Y      Y    6-31g**
  H125      1.597  1.150  0.320    1.008    Y    Y      Y    6-31g**
  H126      1.597  1.150  0.320    1.008    Y    Y      Y    6-31g**
  H127      1.597  1.150  0.320    1.008    Y    Y      Y    6-31g**
  H128      1.597  1.150  0.320    1.008    Y    Y      Y    6-31g**
  H129      1.597  1.150  0.320    1.008    Y    Y      Y    6-31g**
  H130      1.597  1.150  0.320    1.008    Y    Y      Y    6-31g**
  H131      1.597  1.150  0.320    1.008    Y    Y      Y    6-31g**
  H132      1.597  1.150  0.320    1.008    Y    Y      Y    6-31g**
  H133      1.597  1.150  0.320    1.008    Y    Y      Y    6-31g**
  H134      1.597  1.150  0.320    1.008    Y    Y      Y    6-31g**
  H135      1.597  1.150  0.320    1.008    Y    Y      Y    6-31g**
  H136      1.597  1.150  0.320    1.008    Y    Y      Y    6-31g**
  H137      1.597  1.150  0.320    1.008    Y    Y      Y    6-31g**
  H138      1.597  1.150  0.320    1.008    Y    Y      Y    6-31g**
  H139      1.597  1.150  0.320    1.008    Y    Y      Y    6-31g**
  H140      1.597  1.150  0.320    1.008    Y    Y      Y    6-31g**
  S141      2.070  1.900  1.020   31.972    Y    Y      Y    6-31g**
  O142      1.702  1.600  0.730   15.995    Y    Y      Y    6-31g**
  C143      1.949  1.900  0.770   12.000    Y    Y      Y    6-31g**
  O144      1.702  1.600  0.730   15.995    Y    Y      Y    6-31g**
  F145      1.736  1.682  0.720   18.998    Y    Y      Y    6-31g**
  F146      1.736  1.682  0.720   18.998    Y    Y      Y    6-31g**
  F147      1.736  1.682  0.720   18.998    Y    Y      Y    6-31g**
  H148      1.597  1.150  0.320    1.008    Y    Y      Y    6-31g**
  
  Peak memory usage:    528 Mb
  
  end of program pre
   
 Time(pre)  user:        0.0  user+sys:        0.0  wallclock:        0.3
  
  start of program onee
  
  smallest eigenvalue of S:    2.247E-04
  Set cut 20/10 to   5.014318928207916E-004
  number of canonical orbitals.....         1673
  Peak memory usage:    707 Mb
  
  end of program onee
   
 Time(onee)  user:       29.0  user+sys:       30.0  wallclock:       37.9
  
  start of program hfig
  
  initial wavefunction generated automatically from atomic wavefunctions
 
  Irreducible     Total no   No of occupied orbitals 
  representation  orbitals   Shell_1  Shell_2    ...
  No Symm         1673        340
  ------------------------
  Orbital occupation/shell    1.000
 
  Peak memory usage:    646 Mb
  
  end of program hfig
   
 Time(hfig)  user:       49.0  user+sys:       50.0  wallclock:       59.6
  
  start of program probe
  
  Peak memory usage:    640 Mb
  
  end of program probe
   
 Time(probe)  user:       40.0  user+sys:       40.0  wallclock:       57.4
  
  start of program grid
  
  
   grid     grid set  grid #  grid sym
  ------    --------  ------  --------
  coarse        0        0        1
  medium        2        1        1
  fine          0        0        1
  ultrafine     4        2        1
  charge       -1        3        1
  gradient      4        2        1
  density       0        0        1
  DFT-fine    -13        4        1
  DFT-med.    -13        4        1
  DFT-grad    -13        4        1
  DFT-der2      0        0        1
  DFT-cphf      0        0        1
  LMP2-enrg     4        2        1
  LMP2-grad     2        1        1
  DFT-cphf2     0        0        1
  PBF-dens      0        0        1
  plotting      0        0        1
  
   
  number of gridpoints: 
     atom        C1       C2       C3       C4       C5       C6       C7
  grid # 1       97      101       94      102      100       96       93
  grid # 2      337      360      337      366      358      336      337
  grid # 3       35       30       42       51       16       46       26
  grid # 4    48124    48124    48124    48124    48124    48124    48124
   
  number of gridpoints: 
     atom        C8       C9      C10      C11      O12     Si13      C14
  grid # 1       94       96      100      100      112      477      101
  grid # 2      336      354      355      361      433      477      357
  grid # 3       48       17        8       11       29        9       16
  grid # 4    48124    48124    48124    48124    47716    38542    48124
   
  number of gridpoints: 
     atom       C15      C16      C17      C18      C19      C20     Si21
  grid # 1       98      101       96       92       98       99      467
  grid # 2      358      366      338      328      339      362      467
  grid # 3       24       39       26       10       42       11        9
  grid # 4    48124    48124    48124    48124    48124    48124    38542
   
  number of gridpoints: 
     atom       O22      C23      C24      P25      O26      N27      C28
  grid # 1      112       95       94      447      117      107      101
  grid # 2      437      338      338      447      457      410      357
  grid # 3       66       37       48        7       97       21        9
  grid # 4    47716    48124    48124    38640    47716    47928    48124
   
  number of gridpoints: 
     atom       C29      C30      C31      C32      C33      C34      C35
  grid # 1       99      101      101      101      101       92       96
  grid # 2      358      357      358      361      354      335      339
  grid # 3       13        8       19       21        8       18       30
  grid # 4    48124    48124    48124    48124    48124    48124    48124
   
  number of gridpoints: 
     atom       C36      C37      C38      C39      C40      C41      C42
  grid # 1       93       94       93       96       93       96       93
  grid # 2      335      335      332      336      332      338      337
  grid # 3       20       21        7       18       28       25       27
  grid # 4    48124    48124    48124    48124    48124    48124    48124
   
  number of gridpoints: 
     atom       C43      C44      C45      C46      C47      C48      C49
  grid # 1       95       92       94       93       94       94       93
  grid # 2      337      333      334      335      335      336      333
  grid # 3       29       17       18       39       46       42       27
  grid # 4    48124    48124    48124    48124    48124    48124    48124
   
  number of gridpoints: 
     atom       C50      C51      C52      C53      C54      C55      C56
  grid # 1       93       93       93       94       94       93       93
  grid # 2      333      333      332      334      332      331      334
  grid # 3       32       27       20       23       24       29       33
  grid # 4    48124    48124    48124    48124    48124    48124    48124
   
  number of gridpoints: 
     atom       C57      C58      C59      C60      C61      C62      C63
  grid # 1       93       94       95       95       93       93       93
  grid # 2      333      336      337      337      332      334      334
  grid # 3       32       44       48       44       25       34       34
  grid # 4    48124    48124    48124    48124    48124    48124    48124
   
  number of gridpoints: 
     atom       C64      C65      C66      C67      C68      C69      C70
  grid # 1       96       96      100       96       96       96       92
  grid # 2      329      335      358      327      330      329      319
  grid # 3       29       29       29       31       29       29        6
  grid # 4    48124    48124    48124    48124    48124    48124    48124
   
  number of gridpoints: 
     atom       N71      S72      O73      O74      C75      C76      C77
  grid # 1      101      441      123      119       98       96       96
  grid # 2      351      441      515      483      357      328      329
  grid # 3       21       13      365      182       28       30       34
  grid # 4    47928    48492    47716    47716    48124    48124    48124
   
  number of gridpoints: 
     atom       C78      C79      N80      N81      C82      C83      C84
  grid # 1       96       96      113       96       94       93       93
  grid # 2      332      334      421      347      328      324      326
  grid # 3       33       29       97        8        8        6        6
  grid # 4    48124    48124    47928    47928    48124    48124    48124
   
  number of gridpoints: 
     atom       C85      H86      H87      H88      H89      H90      H91
  grid # 1       91      112      118      118      110      118      111
  grid # 2      325      436      453      446      427      453      434
  grid # 3        6      252      420      362      178      424      224
  grid # 4    48124    48426    48426    48426    48426    48426    48426
   
  number of gridpoints: 
     atom       H92      H93      H94      H95      H96      H97      H98
  grid # 1      112      118      118      118      112      111      108
  grid # 2      423      443      449      450      438      432      421
  grid # 3      190      361      406      417      262      233      134
  grid # 4    48426    48426    48426    48426    48426    48426    48426
   
  number of gridpoints: 
     atom       H99     H100     H101     H102     H103     H104     H105
  grid # 1      112      111      107      109      108      110      108
  grid # 2      431      437      417      424      418      427      426
  grid # 3      226      262      109      174      111      197      211
  grid # 4    48426    48426    48426    48426    48426    48426    48426
   
  number of gridpoints: 
     atom      H106     H107     H108     H109     H110     H111     H112
  grid # 1      106      114      118      118      118      115      115
  grid # 2      412      439      452      453      453      443      446
  grid # 3       79      277      414      424      424      326      343
  grid # 4    48426    48426    48426    48426    48426    48426    48426
   
  number of gridpoints: 
     atom      H113     H114     H115     H116     H117     H118     H119
  grid # 1      113      117      112      110      117      117      114
  grid # 2      443      450      438      427      447      452      441
  grid # 3      313      381      283      199      365      409      299
  grid # 4    48426    48426    48426    48426    48426    48426    48426
   
  number of gridpoints: 
     atom      H120     H121     H122     H123     H124     H125     H126
  grid # 1      118      118      118      108      115      118      117
  grid # 2      452      454      453      422      445      452      450
  grid # 3      416      425      424      117      334      418      403
  grid # 4    48426    48426    48426    48426    48426    48426    48426
   
  number of gridpoints: 
     atom      H127     H128     H129     H130     H131     H132     H133
  grid # 1      111      107      110      117      102      110      114
  grid # 2      432      418      426      449      407      430      438
  grid # 3      238      146      162      394      127      218      286
  grid # 4    48426    48426    48426    48426    48426    48426    48426
   
  number of gridpoints: 
     atom      H134     H135     H136     H137     H138     H139     H140
  grid # 1      111      117      102      112      116      113      103
  grid # 2      431      444      400      438      459      442      408
  grid # 3      219      356       86      221      406      274       60
  grid # 4    48426    48426    48426    48426    48426    48426    48426
   
  number of gridpoints: 
     atom      S141     O142     C143     O144     F145     F146     F147
  grid # 1      435      118       90      116      519      514      522
  grid # 2      435      469      320      461      519      514      522
  grid # 3       12       65        7       72      101       85      158
  grid # 4    48492    47716    48124    47716    47062    47062    47062
   
  number of gridpoints: 
     atom      H148    total
  grid # 1      100    18342
  grid # 2      400    57807
  grid # 3       86    18813
  grid # 4    48426  7104526
   
  Peak memory usage:    671 Mb
  
  end of program grid
   
 Time(grid)  user:     1043.0  user+sys:     1046.0  wallclock:     1111.7
  
  start of program rwr
  
  Peak memory usage:    661 Mb
  
  end of program rwr
   
 Time(rwr)  user:       68.0  user+sys:       74.0  wallclock:      149.3
  
  start of program scf
  
 number of electrons..........        680
 number of alpha electrons....        340
 number of beta electrons.....        340
 number of orbitals, total....       1673
 number of doubly-occ'd orbs..        340
 number of open shell orbs....          0
 number of occupied orbitals..        340
 number of virtual orbitals...       1333
 number of hamiltonians.......          1
 number of shells.............          1
 SCF type: DFT=M06-2X
  
       i  u  d  i  g                   
       t  p  i  c  r                                 RMS    maximum
       e  d  i  u  i                       energy  density   DIIS  
       r  t  s  t  d       total energy    change  change    error 
  
etot    1  N  N  1  U   -5562.72765354193           3.8E-03  1.3E-01
etot    2  N  Y  1  U   -5531.32713119623 -3.1E+01  2.0E-02  1.2E-01
etot    3  N  Y  1  U   -5212.08628849978 -3.2E+02  1.9E-02  3.2E-01
etot    4  N  Y  1  U   -5565.95472138874  3.5E+02  3.4E-03  9.1E-02
etot    5  N  Y  1  U   -5567.13775061052  1.2E+00  2.8E-03  5.9E-02
etot    6  N  Y  1  U   -5565.82505000305 -1.3E+00  1.6E-03  7.0E-02
etot    7  N  Y  1  U   -5575.29200057614  9.5E+00  5.0E-04  1.9E-02
etot    8  N  Y  1  U   -5575.50468810461  2.1E-01  1.9E-04  8.1E-03
etot    9  N  Y  1  U   -5575.54018076720  3.5E-02  7.6E-05  4.3E-03
etot   10  N  Y  1  U   -5575.55017916157  1.0E-02  2.3E-05  1.2E-03
etot   11  N  Y  1  U   -5575.55084776846  6.7E-04  1.1E-05  5.3E-04
etot   12  N  Y  1  U   -5575.55107421313  2.3E-04  5.1E-06  2.8E-04
etot   13  N  N  1  U   -5575.55111971988  4.6E-05  0.0E+00  0.0E+00
  
  
 Energy components, in hartrees:
   (A)  Nuclear repulsion............   20833.84427941077
   (E)  Total one-electron terms.....  -49194.31532485197
   (F)    Electron-nuclear...........  -54730.29354035066
   (H)    Kinetic....................    5535.97821549868
   (I)  Total two-electron terms.....   22784.91992572133
   (J)    Coulomb....................   23436.16459058502
   (K)    Exchange+Correlation.......    -651.24466486369
   (L)  Electronic energy............  -26409.39539913065  (E+I)
   (M)  -V/T.........................       2.00714831285  (-(A+F+I)/H)
   (N)  Total energy.................   -5575.55111971988  (A+L)
  
 SCFE: SCF energy: DFT(m06-2x)     -5575.55111971988 hartrees   iterations:  13
  
 
 HOMO energy:    -0.25645
 LUMO energy:    -0.06736
 
  Orbital energies (hartrees): 
   -90.16881   -90.15350   -78.20821   -67.00951   -67.00586   -25.29152
   -25.29023   -25.28984   -19.68930   -19.68593   -19.65362   -19.64698
   -19.62972   -19.62776   -19.60056   -14.82750   -14.81023   -14.78592
   -14.73996   -10.80598   -10.65659   -10.63023   -10.62963   -10.62643
   -10.62299   -10.60768   -10.60448   -10.58963   -10.58948   -10.58759
   -10.58105   -10.57947   -10.57677   -10.57354   -10.57350   -10.57083
   -10.57039   -10.57034   -10.56501   -10.56499   -10.56415   -10.56412
   -10.56145   -10.56110   -10.56104   -10.55851   -10.55655   -10.55620
   -10.55597   -10.55591   -10.55577   -10.55502   -10.55416   -10.55401
   -10.55373   -10.55248   -10.55241   -10.55191   -10.55129   -10.55051
   -10.55034   -10.54926   -10.54859   -10.54842   -10.54835   -10.54781
   -10.54753   -10.54730   -10.54713   -10.54610   -10.54605   -10.54575
   -10.54571   -10.54524   -10.54507   -10.54407   -10.54246   -10.54233
   -10.54131   -10.54105   -10.53848   -10.53773   -10.53734   -10.53682
   -10.53575   -10.53510   -10.53443   -10.53389   -10.53181   -10.52879
   -10.52709   -10.52083    -8.47941    -8.46207    -6.98744    -6.40171
    -6.40062    -6.39978    -6.38398    -6.38357    -6.38340    -5.54099
    -5.53682    -5.10594    -5.10481    -5.10331    -3.85076    -3.85050
    -3.85019    -3.84670    -3.84632    -3.84604    -1.45738    -1.36664
    -1.36460    -1.24272    -1.22688    -1.21555    -1.18375    -1.13036
    -1.11743    -1.10107    -1.08372    -1.08010    -1.05919    -0.99119
    -0.98354    -0.97078    -0.97004    -0.94698    -0.94328    -0.94116
    -0.93977    -0.93500    -0.93155    -0.92447    -0.92381    -0.91329
    -0.90772    -0.89598    -0.89291    -0.87761    -0.85620    -0.85187
    -0.84911    -0.84575    -0.84215    -0.83775    -0.83711    -0.83619
    -0.83351    -0.83257    -0.82981    -0.82821    -0.82705    -0.82668
    -0.82615    -0.82522    -0.82423    -0.82230    -0.81713    -0.80328
    -0.80167    -0.76200    -0.75568    -0.73756    -0.73009    -0.71378
    -0.71022    -0.70593    -0.69980    -0.69499    -0.69306    -0.69099
    -0.68624    -0.68412    -0.68253    -0.68228    -0.67876    -0.67785
    -0.67723    -0.67631    -0.67599    -0.67111    -0.66997    -0.66622
    -0.66364    -0.66352    -0.66109    -0.65637    -0.65614    -0.65498
    -0.65130    -0.64645    -0.63666    -0.62702    -0.61287    -0.60951
    -0.60411    -0.60291    -0.60107    -0.58540    -0.58334    -0.58190
    -0.58019    -0.57778    -0.57648    -0.57540    -0.57355    -0.57191
    -0.56211    -0.56163    -0.56089    -0.55860    -0.55276    -0.54762
    -0.54600    -0.54233    -0.53921    -0.53886    -0.53624    -0.53595
    -0.53127    -0.52895    -0.52673    -0.52637    -0.52300    -0.52119
    -0.52074    -0.51755    -0.51671    -0.51480    -0.51259    -0.51172
    -0.50940    -0.50911    -0.50817    -0.50403    -0.50245    -0.50094
    -0.49956    -0.49829    -0.49761    -0.49664    -0.49571    -0.49454
    -0.49379    -0.49133    -0.49096    -0.48999    -0.48902    -0.48901
    -0.48551    -0.48509    -0.48358    -0.48180    -0.48029    -0.48012
    -0.47770    -0.47488    -0.47348    -0.47214    -0.46939    -0.46613
    -0.46039    -0.45446    -0.45425    -0.45210    -0.44899    -0.44863
    -0.44656    -0.44464    -0.43377    -0.43284    -0.42970    -0.42736
    -0.42712    -0.42655    -0.42388    -0.42240    -0.42175    -0.42085
    -0.41702    -0.41614    -0.41465    -0.41047    -0.40885    -0.40262
    -0.40240    -0.39986    -0.39750    -0.39634    -0.39368    -0.39259
    -0.39132    -0.39116    -0.38895    -0.38854    -0.38434    -0.38381
    -0.38191    -0.38108    -0.37837    -0.37647    -0.37385    -0.36580
    -0.36097    -0.35914    -0.35427    -0.35366    -0.34776    -0.34316
    -0.34212    -0.34179    -0.34071    -0.33862    -0.33801    -0.33708
    -0.33035    -0.32777    -0.32266    -0.31777    -0.31265    -0.30772
    -0.30292    -0.30098    -0.30023    -0.29923    -0.29720    -0.29702
    -0.29129    -0.29096    -0.28956    -0.28941    -0.28844    -0.28491
    -0.28459    -0.28226    -0.27519    -0.25645    -0.06736    -0.02217
    -0.01717    -0.00191    -0.00163     0.00995     0.01403     0.01579
     0.01863     0.02010
 
  Peak memory usage:    862 Mb
  
  end of program scf
   
 Time(scf)  user:    33943.0  user+sys:    34086.0  wallclock:    35804.5
  
  start of program ch
  
  gridpoints used for charge fit        16228
    out of a possible maximum of        18813
  
   Electrostatic potential fitting constrained to reproduce
     total charge:                yes
     dipole moment:               no 
     traceless quadrupole moment: no 
     traceless octapole moment:   no 
  
  Atomic charges from electrostatic potential: 
   
 Atom       C1           C2           C3           C4           C5      
 Charge   -0.09499     -0.01684     -0.17717      0.17311      0.03226
   
 Atom       C6           C7           C8           C9           C10     
 Charge   -0.23053     -0.26270     -0.09456      0.10751     -0.18732
   
 Atom       C11          O12          Si13         C14          C15     
 Charge   -0.00416     -0.31123     -0.15271      0.14673      0.26465
   
 Atom       C16          C17          C18          C19          C20     
 Charge    0.23348     -0.17569     -0.41369     -0.25990      0.02923
   
 Atom       Si21         O22          C23          C24          P25     
 Charge   -0.30512     -0.27406     -0.16068     -0.10050      0.92636
   
 Atom       O26          N27          C28          C29          C30     
 Charge   -0.59547     -0.66796      0.21279      0.15355      0.40451
   
 Atom       C31          C32          C33          C34          C35     
 Charge    0.13453      0.16196      0.44344     -0.17063     -0.25042
   
 Atom       C36          C37          C38          C39          C40     
 Charge   -0.17161     -0.26523     -0.19738     -0.40600     -0.15407
   
 Atom       C41          C42          C43          C44          C45     
 Charge   -0.09176     -0.12509     -0.23472     -0.43343     -0.30168
   
 Atom       C46          C47          C48          C49          C50     
 Charge   -0.14257     -0.15682     -0.08899     -0.09263     -0.18597
   
 Atom       C51          C52          C53          C54          C55     
 Charge   -0.04116     -0.13576     -0.16237     -0.04698     -0.15950
   
 Atom       C56          C57          C58          C59          C60     
 Charge   -0.12476     -0.13306     -0.15351     -0.14767     -0.08405
   
 Atom       C61          C62          C63          C64          C65     
 Charge    0.05700     -0.18609     -0.11647     -0.04983     -0.18978
   
 Atom       C66          C67          C68          C69          C70     
 Charge    0.10189     -0.31083      0.07948     -0.22166      0.27819
   
 Atom       N71          S72          O73          O74          C75     
 Charge   -0.57801      0.73797     -0.39828     -0.47635      0.51104
   
 Atom       C76          C77          C78          C79          N80     
 Charge   -0.43277      0.22320     -0.46395      0.47567     -0.62735
   
 Atom       N81          C82          C83          C84          C85     
 Charge   -0.03970     -0.01392     -0.16938     -0.22581     -0.12448
   
 Atom       H86          H87          H88          H89          H90     
 Charge    0.10583      0.14612      0.14564      0.14806      0.12894
   
 Atom       H91          H92          H93          H94          H95     
 Charge    0.12813      0.20889      0.15657      0.14384      0.13001
   
 Atom       H96          H97          H98          H99          H100    
 Charge    0.12496      0.11821      0.14338      0.13800      0.12275
   
 Atom       H101         H102         H103         H104         H105    
 Charge    0.20077      0.13292      0.09968      0.12025      0.12969
   
 Atom       H106         H107         H108         H109         H110    
 Charge    0.19397      0.16155      0.13467      0.13598      0.12752
   
 Atom       H111         H112         H113         H114         H115    
 Charge    0.12110      0.13159      0.10570      0.13130      0.11849
   
 Atom       H116         H117         H118         H119         H120    
 Charge    0.10317      0.12837      0.12981      0.13157      0.13226
   
 Atom       H121         H122         H123         H124         H125    
 Charge    0.13225      0.12475      0.00910      0.12596      0.13751
   
 Atom       H126         H127         H128         H129         H130    
 Charge    0.12339      0.10270      0.21319      0.06802      0.15433
   
 Atom       H131         H132         H133         H134         H135    
 Charge    0.12186      0.17891      0.08959      0.17780      0.04570
   
 Atom       H136         H137         H138         H139         H140    
 Charge    0.33383      0.16503      0.16665      0.20641      0.20213
   
 Atom       S141         O142         C143         O144         F145    
 Charge    0.89029     -0.52268      0.43481     -0.55072     -0.14216
   
 Atom       F146         F147         H148    
 Charge   -0.13345     -0.14049      0.40478
  
  sum of atomic charges:     0.000000
   
 RMS Error   1.01E-03 hartrees
 
  Peak memory usage:    589 Mb
  
  end of program ch
   
 Time(ch)  user:       17.0  user+sys:       18.0  wallclock:       24.3
  
  start of program post
  
  Writing input files for PBF
  Peak memory usage:    536 Mb
  
  end of program post
   
 Time(post)  user:        0.0  user+sys:        0.0  wallclock:        0.3

  start of program pbf

Pbf Version 4.00

Molecular surface area:      818.11235   [A2]
Reaction field energy:       -18.51622   [kT]
  Peak memory usage: 560 Mb

  end of program pbf

 Time(pbf)  user:        9.9  user+sys:        9.9  wallclock:       10.0
  
  start of program solv
  
   number of surface charges from PBF   13394
   sum of surface charges     -0.00035
   
  nuclear repulsion energy.......   20833.844279411 hartrees
  Peak memory usage:    701 Mb
  
  end of program solv
   
 Time(solv)  user:       38.0  user+sys:       38.0  wallclock:       38.3
  
  start of program scf
  
  
       i  u  d  i  g                   
       t  p  i  c  r                                 RMS    maximum
       e  d  i  u  i                       energy  density   DIIS  
       r  t  s  t  d       total energy    change  change    error 
  
etot    1  N  N  1  U   -5575.58941800499           6.1E-05  1.5E-03
etot    2  N  Y  1  U   -5575.59023986941  8.2E-04  2.1E-05  1.2E-03
etot    3  N  Y  1  U   -5575.59071870087  4.8E-04  6.1E-06  5.1E-04
etot    4  N  Y  1  U   -5575.59077811166  5.9E-05  2.6E-06  1.5E-04
etot    5  N  N  1  U   -5575.59078619425  8.1E-06  0.0E+00  0.0E+00
  
  
 Energy components, in hartrees:
   (A)  Total zero-electron terms....   20835.81956467297
   (B)    Nuclear-nuclear............   20833.84427941077
   (C)    Nuclear-solvent............       1.97528526220
   (E)  Total one-electron terms.....  -49197.55407522854
   (F)    Electron-nuclear...........  -54731.57285764331
   (G)    Electron-solvent...........      -2.01622697237
   (H)    Kinetic....................    5536.03500938714
   (I)  Total two-electron terms.....   22786.14372436131
   (J)    Coulomb....................   23437.41195649127
   (K)    Exchange+Correlation.......    -651.26823212995
   (L)  Electronic energy............  -26411.41035086722  (E+I)
   (N)  Total quantum mech. energy...   -5575.59078619425  (A+L)
   (O)  Gas phase energy.............   -5575.55111971988
   (P)  Solution phase energy........   -5575.57031533917  (Q+R+S)
   (Q)    Total solute energy........   -5575.54984448409  (N-C-G)
   (R)    Total solvent energy.......      -0.02047085508  (C/2+G/2)
   (S)    Solute cavity energy.......       0.00000000000
   (U)  Reorganization energy........       0.00127523579  (Q-O)
   (V)  Solvation energy.............      -0.01919561929  (P-O)
  
 SCFE:  Solution phase energy: DFT(m06-2x)      -5575.57031533917 hartrees
        SCF iterations:   5
  
 
 HOMO energy:    -0.25642
 LUMO energy:    -0.06702
 
  Orbital energies (hartrees): 
   -90.17860   -90.15688   -78.20942   -67.00988   -67.00799   -25.29476
   -25.29219   -25.29199   -19.68967   -19.68726   -19.66031   -19.65610
   -19.63399   -19.63037   -19.60157   -14.82669   -14.81669   -14.78965
   -14.74219   -10.80876   -10.65804   -10.63452   -10.62782   -10.62632
   -10.62379   -10.60827   -10.60529   -10.58987   -10.58912   -10.58840
   -10.58199   -10.57911   -10.57391   -10.57250   -10.57240   -10.57011
   -10.56967   -10.56919   -10.56447   -10.56348   -10.56277   -10.56199
   -10.56175   -10.56109   -10.56090   -10.55787   -10.55519   -10.55492
   -10.55467   -10.55452   -10.55444   -10.55412   -10.55323   -10.55255
   -10.55227   -10.55223   -10.55210   -10.55147   -10.55099   -10.55052
   -10.55032   -10.54992   -10.54954   -10.54936   -10.54902   -10.54883
   -10.54856   -10.54819   -10.54793   -10.54771   -10.54755   -10.54663
   -10.54634   -10.54581   -10.54572   -10.54455   -10.54436   -10.54319
   -10.54270   -10.54236   -10.53957   -10.53932   -10.53887   -10.53840
   -10.53823   -10.53667   -10.53526   -10.53442   -10.53391   -10.52964
   -10.52888   -10.52257    -8.48895    -8.46539    -6.98866    -6.41120
    -6.41025    -6.40932    -6.38729    -6.38690    -6.38673    -5.54135
    -5.53894    -5.10717    -5.10603    -5.10452    -3.85113    -3.85087
    -3.85055    -3.84880    -3.84844    -3.84816    -1.46000    -1.36956
    -1.36680    -1.25190    -1.22835    -1.21831    -1.18455    -1.14002
    -1.11667    -1.10454    -1.08477    -1.08336    -1.06379    -0.99308
    -0.98363    -0.97063    -0.96966    -0.94760    -0.94371    -0.94367
    -0.94005    -0.93768    -0.93306    -0.92483    -0.92399    -0.91304
    -0.90632    -0.89822    -0.89266    -0.87800    -0.85563    -0.85115
    -0.84794    -0.84589    -0.84328    -0.83796    -0.83784    -0.83696
    -0.83546    -0.83271    -0.83080    -0.82875    -0.82822    -0.82723
    -0.82705    -0.82643    -0.82565    -0.82394    -0.81882    -0.80453
    -0.80294    -0.76383    -0.75716    -0.73876    -0.73125    -0.71603
    -0.71087    -0.70556    -0.69995    -0.69358    -0.69330    -0.69116
    -0.68639    -0.68554    -0.68458    -0.68295    -0.68012    -0.67825
    -0.67761    -0.67568    -0.67520    -0.67137    -0.67096    -0.66751
    -0.66548    -0.66382    -0.66097    -0.65863    -0.65621    -0.65571
    -0.65118    -0.64799    -0.63776    -0.62694    -0.61377    -0.60972
    -0.60833    -0.60374    -0.60073    -0.58709    -0.58355    -0.58210
    -0.58075    -0.57978    -0.57829    -0.57665    -0.57398    -0.57288
    -0.56469    -0.56279    -0.56132    -0.56058    -0.55307    -0.54900
    -0.54669    -0.54434    -0.54176    -0.53952    -0.53796    -0.53607
    -0.53375    -0.53004    -0.52744    -0.52548    -0.52429    -0.52281
    -0.52037    -0.51792    -0.51617    -0.51554    -0.51337    -0.51219
    -0.51081    -0.50927    -0.50805    -0.50442    -0.50330    -0.50238
    -0.50053    -0.49909    -0.49725    -0.49628    -0.49567    -0.49534
    -0.49392    -0.49318    -0.49161    -0.49080    -0.48990    -0.48870
    -0.48525    -0.48466    -0.48387    -0.48170    -0.48093    -0.47833
    -0.47788    -0.47462    -0.47430    -0.47306    -0.46933    -0.46622
    -0.46135    -0.45474    -0.45444    -0.45203    -0.44995    -0.44918
    -0.44673    -0.44552    -0.43509    -0.43415    -0.43276    -0.43027
    -0.42838    -0.42811    -0.42561    -0.42341    -0.42223    -0.42176
    -0.42017    -0.41816    -0.41637    -0.41226    -0.40948    -0.40751
    -0.40225    -0.40092    -0.39911    -0.39741    -0.39581    -0.39345
    -0.39294    -0.39279    -0.39181    -0.38917    -0.38843    -0.38619
    -0.38291    -0.38187    -0.38017    -0.37890    -0.37463    -0.36688
    -0.36332    -0.36155    -0.35527    -0.35401    -0.34793    -0.34721
    -0.34349    -0.34198    -0.34067    -0.34042    -0.33918    -0.33769
    -0.33219    -0.32897    -0.32411    -0.31928    -0.31255    -0.30862
    -0.30451    -0.30266    -0.30163    -0.30019    -0.29969    -0.29760
    -0.29336    -0.29245    -0.29185    -0.29051    -0.28933    -0.28624
    -0.28514    -0.28388    -0.27520    -0.25642    -0.06702    -0.02219
    -0.01984    -0.00284    -0.00183     0.00979     0.01393     0.01516
     0.01806     0.01819
 
  Peak memory usage:    859 Mb
  
  end of program scf
   
 Time(scf)  user:    10565.0  user+sys:    10605.0  wallclock:    10866.9
  
  start of program sole
  
    SCRF                   solvation energy
  iteration          Hartrees            kcal/mol
     0               0.0000000            0.0000
     1              -0.0191956          -12.0454
  
  solvation energy not yet converged... 
  
  Peak memory usage:    635 Mb
  
  end of program sole
   
 Time(sole)  user:        0.0  user+sys:        0.0  wallclock:        0.2
  
  start of program ch
  
  gridpoints used for charge fit        16228
    out of a possible maximum of        16228
  
   Electrostatic potential fitting constrained to reproduce
     total charge:                yes
     dipole moment:               no 
     traceless quadrupole moment: no 
     traceless octapole moment:   no 
  
  Atomic charges from electrostatic potential: 
   
 Atom       C1           C2           C3           C4           C5      
 Charge   -0.10008     -0.02192     -0.18527      0.17520      0.03915
   
 Atom       C6           C7           C8           C9           C10     
 Charge   -0.23816     -0.27737     -0.10286      0.08847     -0.18427
   
 Atom       C11          O12          Si13         C14          C15     
 Charge    0.02147     -0.30295     -0.18611      0.13946      0.24620
   
 Atom       C16          C17          C18          C19          C20     
 Charge    0.24398     -0.17684     -0.43124     -0.27067      0.05582
   
 Atom       Si21         O22          C23          C24          P25     
 Charge   -0.34039     -0.26493     -0.16766     -0.10640      0.91435
   
 Atom       O26          N27          C28          C29          C30     
 Charge   -0.58988     -0.66704      0.21886      0.16610      0.42493
   
 Atom       C31          C32          C33          C34          C35     
 Charge    0.13999      0.16639      0.47373     -0.17762     -0.25179
   
 Atom       C36          C37          C38          C39          C40     
 Charge   -0.17681     -0.27255     -0.20396     -0.42159     -0.16371
   
 Atom       C41          C42          C43          C44          C45     
 Charge   -0.09262     -0.12745     -0.24183     -0.45661     -0.32108
   
 Atom       C46          C47          C48          C49          C50     
 Charge   -0.14737     -0.16567     -0.09798     -0.09997     -0.19258
   
 Atom       C51          C52          C53          C54          C55     
 Charge   -0.04815     -0.13896     -0.17223     -0.04913     -0.17000
   
 Atom       C56          C57          C58          C59          C60     
 Charge   -0.12925     -0.14304     -0.16309     -0.15609     -0.09088
   
 Atom       C61          C62          C63          C64          C65     
 Charge    0.06247     -0.19920     -0.11849     -0.04885     -0.19777
   
 Atom       C66          C67          C68          C69          C70     
 Charge    0.11599     -0.32885      0.07184     -0.23160      0.25419
   
 Atom       N71          S72          O73          O74          C75     
 Charge   -0.57064      0.76209     -0.43154     -0.49551      0.52382
   
 Atom       C76          C77          C78          C79          N80     
 Charge   -0.44428      0.22931     -0.46395      0.48553     -0.65996
   
 Atom       N81          C82          C83          C84          C85     
 Charge   -0.04726     -0.00744     -0.16602     -0.23334     -0.09502
   
 Atom       H86          H87          H88          H89          H90     
 Charge    0.10836      0.15507      0.15304      0.15497      0.13801
   
 Atom       H91          H92          H93          H94          H95     
 Charge    0.13114      0.21521      0.16540      0.15166      0.13806
   
 Atom       H96          H97          H98          H99          H100    
 Charge    0.12948      0.11705      0.14316      0.14123      0.12606
   
 Atom       H101         H102         H103         H104         H105    
 Charge    0.20830      0.14006      0.10144      0.12315      0.13443
   
 Atom       H106         H107         H108         H109         H110    
 Charge    0.20900      0.16867      0.14230      0.14408      0.13586
   
 Atom       H111         H112         H113         H114         H115    
 Charge    0.12569      0.13968      0.11407      0.13839      0.12392
   
 Atom       H116         H117         H118         H119         H120    
 Charge    0.10597      0.13727      0.13687      0.13571      0.14054
   
 Atom       H121         H122         H123         H124         H125    
 Charge    0.14061      0.13345      0.01188      0.13471      0.14378
   
 Atom       H126         H127         H128         H129         H130    
 Charge    0.13093      0.10873      0.21914      0.07524      0.16273
   
 Atom       H131         H132         H133         H134         H135    
 Charge    0.13337      0.18742      0.09754      0.18357      0.05075
   
 Atom       H136         H137         H138         H139         H140    
 Charge    0.33199      0.17035      0.17597      0.21355      0.19410
   
 Atom       S141         O142         C143         O144         F145    
 Charge    0.89605     -0.51948      0.42589     -0.55606     -0.13772
   
 Atom       F146         F147         H148    
 Charge   -0.12894     -0.14196      0.39549
  
  sum of atomic charges:     0.000000
   
 RMS Error   1.02E-03 hartrees
 
  Peak memory usage:    588 Mb
  
  end of program ch
   
 Time(ch)  user:       18.0  user+sys:       19.0  wallclock:       19.2
  
  start of program post
  
  Writing input files for PBF
  Peak memory usage:    536 Mb
  
  end of program post
   
 Time(post)  user:        0.0  user+sys:        0.0  wallclock:        0.2

  start of program pbf

Pbf Version 4.00

Molecular surface area:      818.11235   [A2]
Reaction field energy:       -21.56452   [kT]
  Peak memory usage: 560 Mb

  end of program pbf

 Time(pbf)  user:       10.5  user+sys:       10.5  wallclock:       10.6
  
  start of program solv
  
   number of surface charges from PBF   13394
   sum of surface charges     -0.00036
   
  nuclear repulsion energy.......   20833.844279411 hartrees
  Peak memory usage:    701 Mb
  
  end of program solv
   
 Time(solv)  user:       38.0  user+sys:       38.0  wallclock:       38.4
  
  start of program scf
  
  
       i  u  d  i  g                   
       t  p  i  c  r                                 RMS    maximum
       e  d  i  u  i                       energy  density   DIIS  
       r  t  s  t  d       total energy    change  change    error 
  
etot    1  N  N  1  U   -5575.59395920208           7.8E-06  1.9E-04
etot    2  N  N  1  U   -5575.59396337005  4.2E-06  0.0E+00  0.0E+00
  
  
 Energy components, in hartrees:
   (A)  Total zero-electron terms....   20836.01757515429
   (B)    Nuclear-nuclear............   20833.84427941077
   (C)    Nuclear-solvent............       2.17329574352
   (E)  Total one-electron terms.....  -49198.04929139001
   (F)    Electron-nuclear...........  -54731.87633625650
   (G)    Electron-solvent...........      -2.21787744605
   (H)    Kinetic....................    5536.04492231254
   (I)  Total two-electron terms.....   22786.43775286566
   (J)    Coulomb....................   23437.70817089773
   (K)    Exchange+Correlation.......    -651.27041803207
   (L)  Electronic energy............  -26411.61153852435  (E+I)
   (N)  Total quantum mech. energy...   -5575.59396337005  (A+L)
   (O)  Gas phase energy.............   -5575.55111971988
   (P)  Solution phase energy........   -5575.57167251879  (Q+R+S)
   (Q)    Total solute energy........   -5575.54938166753  (N-C-G)
   (R)    Total solvent energy.......      -0.02229085126  (C/2+G/2)
   (S)    Solute cavity energy.......       0.00000000000
   (U)  Reorganization energy........       0.00173805235  (Q-O)
   (V)  Solvation energy.............      -0.02055279891  (P-O)
  
 SCFE:  Solution phase energy: DFT(m06-2x)      -5575.57167251879 hartrees
        SCF iterations:   2
  
 
 HOMO energy:    -0.27820
 LUMO energy:    -0.06662
 
  Orbital energies (hartrees): 
   -53.17075   -52.73387   -51.07684   -41.93612   -41.42445   -39.11246
   -38.92632   -35.01174   -32.36081   -24.10107   -23.97349   -22.55554
   -21.99021   -20.53662   -20.47354   -20.28238   -18.86574   -18.20863
   -17.41860   -17.05460   -16.70109   -16.00276   -15.75154   -14.42702
   -14.17646   -13.64592   -13.20957   -13.16666   -12.94685   -12.62044
   -12.53840   -12.28963   -12.25889   -11.79851   -11.69288   -11.57764
   -11.57049   -11.44125   -11.35928   -11.26318   -11.22621   -11.10848
   -11.05888   -10.86738   -10.82982   -10.82397   -10.80461   -10.79619
   -10.76964   -10.73301   -10.72057   -10.67387   -10.65348   -10.65042
   -10.62789   -10.61713   -10.60051   -10.59852   -10.57648   -10.57415
   -10.57285   -10.55322   -10.54344   -10.51874   -10.51321   -10.48739
   -10.47782   -10.47570   -10.46394   -10.44768   -10.43414   -10.42819
   -10.41459   -10.38793   -10.36321   -10.33760   -10.32464   -10.30607
   -10.27572   -10.24938   -10.22410   -10.13664   -10.02037    -9.89845
    -9.86138    -9.75445    -9.73417    -9.66563    -9.60720    -9.36057
    -9.34324    -9.03027    -8.88537    -8.81380    -8.67990    -8.65578
    -8.46663    -7.19736    -7.16024    -6.57775    -6.55964    -6.52804
    -6.52047    -6.48617    -6.48021    -6.08210    -5.99403    -5.93311
    -5.81461    -5.47001    -4.26820    -4.13187    -1.44867    -1.39298
    -1.37247    -1.23291    -1.16565    -1.10500    -1.00608    -0.98758
    -0.97840    -0.94937    -0.94695    -0.94552    -0.93969    -0.92258
    -0.92086    -0.90999    -0.90725    -0.90529    -0.90469    -0.90275
    -0.90106    -0.89898    -0.88663    -0.86358    -0.86006    -0.85975
    -0.85837    -0.82343    -0.82332    -0.81993    -0.81155    -0.81043
    -0.80815    -0.80554    -0.80446    -0.80420    -0.80320    -0.80117
    -0.79077    -0.78608    -0.78601    -0.78468    -0.77754    -0.77670
    -0.77397    -0.77312    -0.77098    -0.75573    -0.75567    -0.74760
    -0.74320    -0.72760    -0.72672    -0.72147    -0.71685    -0.71045
    -0.69583    -0.68805    -0.68486    -0.68304    -0.67957    -0.67754
    -0.67678    -0.67502    -0.67364    -0.67139    -0.67045    -0.67026
    -0.66604    -0.66456    -0.66312    -0.65877    -0.65833    -0.65651
    -0.65545    -0.65422    -0.65200    -0.65173    -0.64517    -0.64072
    -0.63195    -0.62874    -0.62872    -0.62471    -0.62358    -0.62308
    -0.62252    -0.62212    -0.61991    -0.61503    -0.61269    -0.61126
    -0.60898    -0.60873    -0.60791    -0.59968    -0.59927    -0.59706
    -0.59698    -0.59563    -0.59497    -0.59257    -0.59024    -0.58711
    -0.58294    -0.58161    -0.58114    -0.58032    -0.57529    -0.57187
    -0.56841    -0.56831    -0.56656    -0.56492    -0.56477    -0.55676
    -0.55668    -0.55591    -0.55185    -0.55124    -0.55072    -0.54840
    -0.54670    -0.54082    -0.53971    -0.53290    -0.52762    -0.52378
    -0.52007    -0.51890    -0.51865    -0.51830    -0.51211    -0.51000
    -0.50539    -0.50227    -0.50162    -0.50160    -0.49937    -0.49894
    -0.49604    -0.49595    -0.49141    -0.48821    -0.48587    -0.48326
    -0.48136    -0.48057    -0.48049    -0.48030    -0.47301    -0.47270
    -0.47225    -0.47104    -0.47092    -0.47092    -0.47032    -0.47000
    -0.46962    -0.46742    -0.46661    -0.46412    -0.46377    -0.46003
    -0.45910    -0.45881    -0.45845    -0.45782    -0.45627    -0.45280
    -0.45279    -0.45204    -0.45189    -0.45002    -0.44988    -0.44635
    -0.44506    -0.44467    -0.44348    -0.43971    -0.43652    -0.43580
    -0.43515    -0.43459    -0.43453    -0.42969    -0.42933    -0.42791
    -0.42602    -0.42566    -0.42220    -0.41859    -0.41695    -0.41110
    -0.41012    -0.40997    -0.40525    -0.40361    -0.40126    -0.40069
    -0.39965    -0.39421    -0.39385    -0.39326    -0.39202    -0.39146
    -0.38644    -0.38217    -0.38189    -0.37752    -0.37190    -0.36741
    -0.36367    -0.36161    -0.36044    -0.35838    -0.35717    -0.35472
    -0.34965    -0.34889    -0.34637    -0.33727    -0.32985    -0.32780
    -0.32655    -0.30520    -0.29338    -0.27820    -0.06662    -0.02198
    -0.01983    -0.00292    -0.00182     0.00992     0.01417     0.01531
     0.01816     0.01833
 
  Peak memory usage:    859 Mb
  
  end of program scf
   
 Time(scf)  user:     2680.0  user+sys:     2691.0  wallclock:     2755.9
  
  start of program sole
  
    SCRF                   solvation energy
  iteration          Hartrees            kcal/mol
     0               0.0000000            0.0000
     1              -0.0191956          -12.0454
     2              -0.0205528          -12.8971
  
  solvation energy not yet converged... 
  
  Peak memory usage:    635 Mb
  
  end of program sole
   
 Time(sole)  user:        0.0  user+sys:        0.0  wallclock:        0.2
  
  start of program ch
  
  gridpoints used for charge fit        16228
    out of a possible maximum of        16228
  
   Electrostatic potential fitting constrained to reproduce
     total charge:                yes
     dipole moment:               no 
     traceless quadrupole moment: no 
     traceless octapole moment:   no 
  
  Atomic charges from electrostatic potential: 
   
 Atom       C1           C2           C3           C4           C5      
 Charge   -0.10165     -0.02247     -0.18484      0.17497      0.03851
   
 Atom       C6           C7           C8           C9           C10     
 Charge   -0.23820     -0.27774     -0.10311      0.08798     -0.18425
   
 Atom       C11          O12          Si13         C14          C15     
 Charge    0.02276     -0.30208     -0.18833      0.13894      0.24409
   
 Atom       C16          C17          C18          C19          C20     
 Charge    0.24498     -0.17721     -0.43225     -0.27161      0.05736
   
 Atom       Si21         O22          C23          C24          P25     
 Charge   -0.34361     -0.26425     -0.16736     -0.10577      0.91227
   
 Atom       O26          N27          C28          C29          C30     
 Charge   -0.58806     -0.66770      0.21895      0.16737      0.42615
   
 Atom       C31          C32          C33          C34          C35     
 Charge    0.13935      0.16634      0.47571     -0.17795     -0.25171
   
 Atom       C36          C37          C38          C39          C40     
 Charge   -0.17781     -0.27299     -0.20507     -0.42324     -0.16401
   
 Atom       C41          C42          C43          C44          C45     
 Charge   -0.09234     -0.12799     -0.24273     -0.45945     -0.32327
   
 Atom       C46          C47          C48          C49          C50     
 Charge   -0.14772     -0.16588     -0.09858     -0.10115     -0.19256
   
 Atom       C51          C52          C53          C54          C55     
 Charge   -0.04828     -0.13881     -0.17270     -0.04837     -0.17031
   
 Atom       C56          C57          C58          C59          C60     
 Charge   -0.12960     -0.14407     -0.16359     -0.15610     -0.09080
   
 Atom       C61          C62          C63          C64          C65     
 Charge    0.06268     -0.19871     -0.11744     -0.04713     -0.19743
   
 Atom       C66          C67          C68          C69          C70     
 Charge    0.11515     -0.33211      0.07044     -0.23181      0.25070
   
 Atom       N71          S72          O73          O74          C75     
 Charge   -0.57137      0.76060     -0.43585     -0.49323      0.52292
   
 Atom       C76          C77          C78          C79          N80     
 Charge   -0.44397      0.23169     -0.46172      0.48459     -0.66466
   
 Atom       N81          C82          C83          C84          C85     
 Charge   -0.04847     -0.00415     -0.16409     -0.23379     -0.09213
   
 Atom       H86          H87          H88          H89          H90     
 Charge    0.10850      0.15562      0.15349      0.15526      0.13874
   
 Atom       H91          H92          H93          H94          H95     
 Charge    0.13131      0.21524      0.16598      0.15215      0.13859
   
 Atom       H96          H97          H98          H99          H100    
 Charge    0.12947      0.11673      0.14275      0.14146      0.12609
   
 Atom       H101         H102         H103         H104         H105    
 Charge    0.20884      0.14051      0.10142      0.12335      0.13481
   
 Atom       H106         H107         H108         H109         H110    
 Charge    0.21101      0.16911      0.14289      0.14465      0.13647
   
 Atom       H111         H112         H113         H114         H115    
 Charge    0.12583      0.14040      0.11496      0.13907      0.12480
   
 Atom       H116         H117         H118         H119         H120    
 Charge    0.10596      0.13802      0.13734      0.13569      0.14111
   
 Atom       H121         H122         H123         H124         H125    
 Charge    0.14123      0.13415      0.01285      0.13553      0.14404
   
 Atom       H126         H127         H128         H129         H130    
 Charge    0.13171      0.10967      0.21930      0.07582      0.16328
   
 Atom       H131         H132         H133         H134         H135    
 Charge    0.13445      0.18840      0.09829      0.18419      0.05137
   
 Atom       H136         H137         H138         H139         H140    
 Charge    0.33069      0.17039      0.17708      0.21435      0.19345
   
 Atom       S141         O142         C143         O144         F145    
 Charge    0.89682     -0.51775      0.42473     -0.55754     -0.13707
   
 Atom       F146         F147         H148    
 Charge   -0.12830     -0.14221      0.39458
  
  sum of atomic charges:     0.000000
   
 RMS Error   1.02E-03 hartrees
 
  Peak memory usage:    588 Mb
  
  end of program ch
   
 Time(ch)  user:       18.0  user+sys:       18.0  wallclock:       20.4
  
  start of program post
  
  Writing input files for PBF
  Peak memory usage:    536 Mb
  
  end of program post
   
 Time(post)  user:        0.0  user+sys:        0.0  wallclock:        0.2

  start of program pbf

Pbf Version 4.00

Molecular surface area:      818.11235   [A2]
Reaction field energy:       -22.06507   [kT]
  Peak memory usage: 560 Mb

  end of program pbf

 Time(pbf)  user:       10.9  user+sys:       10.9  wallclock:       11.0
  
  start of program solv
  
   number of surface charges from PBF   13394
   sum of surface charges     -0.00036
   
  nuclear repulsion energy.......   20833.844279411 hartrees
  Peak memory usage:    701 Mb
  
  end of program solv
   
 Time(solv)  user:       38.0  user+sys:       38.0  wallclock:       38.5
  
  start of program scf
  
  
       i  u  d  i  g                   
       t  p  i  c  r                                 RMS    maximum
       e  d  i  u  i                       energy  density   DIIS  
       r  t  s  t  d       total energy    change  change    error 
  
etot    1  N  N  1  U   -5575.59444725567           6.6E-06  2.0E-04
etot    2  N  N  1  U   -5575.59442407630 -2.3E-05  0.0E+00  0.0E+00
  
  
 Energy components, in hartrees:
   (A)  Total zero-electron terms....   20836.06045826052
   (B)    Nuclear-nuclear............   20833.84427941077
   (C)    Nuclear-solvent............       2.21617884975
   (E)  Total one-electron terms.....  -49197.79495631671
   (F)    Electron-nuclear...........  -54731.56348264175
   (G)    Electron-solvent...........      -2.26100334247
   (H)    Kinetic....................    5536.02952966751
   (I)  Total two-electron terms.....   22786.14007397989
   (J)    Coulomb....................   23437.40907486099
   (K)    Exchange+Correlation.......    -651.26900088109
   (L)  Electronic energy............  -26411.65488233682  (E+I)
   (N)  Total quantum mech. energy...   -5575.59442407630  (A+L)
   (O)  Gas phase energy.............   -5575.55111971988
   (P)  Solution phase energy........   -5575.57201182994  (Q+R+S)
   (Q)    Total solute energy........   -5575.54959958358  (N-C-G)
   (R)    Total solvent energy.......      -0.02241224636  (C/2+G/2)
   (S)    Solute cavity energy.......       0.00000000000
   (U)  Reorganization energy........       0.00152013630  (Q-O)
   (V)  Solvation energy.............      -0.02089211006  (P-O)
  
 SCFE:  Solution phase energy: DFT(m06-2x)      -5575.57201182994 hartrees
        SCF iterations:   2
  
 
 HOMO energy:    -0.25692
 LUMO energy:    -0.06672
 
  Orbital energies (hartrees): 
   -90.18072   -90.15792   -78.20993   -67.00996   -67.00905   -25.29595
   -25.29252   -25.29248   -19.68988   -19.68808   -19.66092   -19.65826
   -19.63664   -19.62918   -19.60071   -14.82685   -14.81984   -14.79340
   -14.74360   -10.80958   -10.65951   -10.63651   -10.62670   -10.62555
   -10.62498   -10.60803   -10.60613   -10.58859   -10.58809   -10.58668
   -10.58309   -10.57805   -10.57336   -10.57313   -10.57121   -10.57118
   -10.57074   -10.56809   -10.56485   -10.56388   -10.56355   -10.56179
   -10.56147   -10.56118   -10.56095   -10.55864   -10.55542   -10.55513
   -10.55476   -10.55476   -10.55458   -10.55437   -10.55346   -10.55237
   -10.55219   -10.55193   -10.55154   -10.55098   -10.55088   -10.55042
   -10.55041   -10.55026   -10.54989   -10.54965   -10.54945   -10.54885
   -10.54840   -10.54830   -10.54810   -10.54772   -10.54740   -10.54695
   -10.54602   -10.54560   -10.54536   -10.54495   -10.54415   -10.54378
   -10.54362   -10.54168   -10.54095   -10.53976   -10.53915   -10.53856
   -10.53854   -10.53736   -10.53556   -10.53543   -10.53401   -10.53097
   -10.52907   -10.52373    -8.49103    -8.46641    -6.98916    -6.41328
    -6.41235    -6.41140    -6.38831    -6.38792    -6.38775    -5.54143
    -5.53999    -5.10767    -5.10653    -5.10502    -3.85121    -3.85095
    -3.85063    -3.84985    -3.84949    -3.84922    -1.46076    -1.37045
    -1.36736    -1.25368    -1.22900    -1.21915    -1.18511    -1.14181
    -1.11594    -1.10542    -1.08509    -1.08469    -1.06560    -0.99392
    -0.98428    -0.97082    -0.97013    -0.94755    -0.94425    -0.94359
    -0.93960    -0.93860    -0.93320    -0.92463    -0.92435    -0.91342
    -0.90533    -0.89875    -0.89320    -0.87828    -0.85599    -0.85120
    -0.84712    -0.84593    -0.84381    -0.83798    -0.83793    -0.83719
    -0.83593    -0.83230    -0.83144    -0.82910    -0.82862    -0.82753
    -0.82723    -0.82704    -0.82575    -0.82413    -0.81924    -0.80531
    -0.80337    -0.76453    -0.75778    -0.73917    -0.73187    -0.71683
    -0.71143    -0.70592    -0.70018    -0.69376    -0.69281    -0.69139
    -0.68671    -0.68615    -0.68529    -0.68300    -0.68062    -0.67863
    -0.67751    -0.67561    -0.67438    -0.67167    -0.67074    -0.66786
    -0.66624    -0.66369    -0.66066    -0.65920    -0.65649    -0.65575
    -0.65160    -0.64815    -0.63833    -0.62733    -0.61421    -0.60995
    -0.60911    -0.60415    -0.60110    -0.58767    -0.58367    -0.58237
    -0.58143    -0.57988    -0.57863    -0.57710    -0.57406    -0.57316
    -0.56534    -0.56334    -0.56180    -0.56106    -0.55316    -0.54955
    -0.54707    -0.54503    -0.54195    -0.53979    -0.53824    -0.53607
    -0.53455    -0.53048    -0.52784    -0.52585    -0.52408    -0.52328
    -0.52028    -0.51777    -0.51611    -0.51590    -0.51391    -0.51241
    -0.51126    -0.50944    -0.50830    -0.50468    -0.50341    -0.50247
    -0.50095    -0.49938    -0.49751    -0.49673    -0.49557    -0.49543
    -0.49441    -0.49386    -0.49154    -0.49094    -0.49022    -0.48883
    -0.48552    -0.48471    -0.48373    -0.48209    -0.48076    -0.47752
    -0.47719    -0.47533    -0.47423    -0.47276    -0.46940    -0.46661
    -0.46139    -0.45493    -0.45458    -0.45207    -0.45026    -0.44937
    -0.44679    -0.44604    -0.43614    -0.43453    -0.43309    -0.43101
    -0.42870    -0.42820    -0.42598    -0.42346    -0.42229    -0.42195
    -0.42075    -0.41884    -0.41651    -0.41270    -0.40991    -0.40814
    -0.40239    -0.40131    -0.40032    -0.39844    -0.39606    -0.39365
    -0.39336    -0.39295    -0.39290    -0.38945    -0.38804    -0.38695
    -0.38313    -0.38206    -0.38105    -0.37958    -0.37510    -0.36692
    -0.36385    -0.36212    -0.35583    -0.35432    -0.34889    -0.34829
    -0.34358    -0.34202    -0.34120    -0.34114    -0.33955    -0.33692
    -0.33285    -0.32950    -0.32471    -0.31992    -0.31262    -0.30862
    -0.30449    -0.30315    -0.30151    -0.30042    -0.29994    -0.29754
    -0.29402    -0.29329    -0.29190    -0.29105    -0.28953    -0.28640
    -0.28533    -0.28409    -0.27562    -0.25692    -0.06672    -0.02272
    -0.02059    -0.00313    -0.00218     0.00933     0.01383     0.01490
     0.01754     0.01785
 
  Peak memory usage:    859 Mb
  
  end of program scf
   
 Time(scf)  user:     2666.0  user+sys:     2677.0  wallclock:     2762.2
  
  start of program sole
  
    SCRF                   solvation energy
  iteration          Hartrees            kcal/mol
     0               0.0000000            0.0000
     1              -0.0191956          -12.0454
     2              -0.0205528          -12.8971
     3              -0.0208921          -13.1100
  
  solvation energy not yet converged... 
  
  Peak memory usage:    635 Mb
  
  end of program sole
   
 Time(sole)  user:        0.0  user+sys:        0.0  wallclock:        0.7
  
  start of program ch
  
  gridpoints used for charge fit        16228
    out of a possible maximum of        16228
  
   Electrostatic potential fitting constrained to reproduce
     total charge:                yes
     dipole moment:               no 
     traceless quadrupole moment: no 
     traceless octapole moment:   no 
  
  Atomic charges from electrostatic potential: 
   
 Atom       C1           C2           C3           C4           C5      
 Charge   -0.09967     -0.02223     -0.18628      0.17550      0.04031
   
 Atom       C6           C7           C8           C9           C10     
 Charge   -0.23893     -0.27913     -0.10351      0.08682     -0.18324
   
 Atom       C11          O12          Si13         C14          C15     
 Charge    0.02321     -0.30307     -0.18678      0.13907      0.24492
   
 Atom       C16          C17          C18          C19          C20     
 Charge    0.24422     -0.17636     -0.43257     -0.27126      0.05864
   
 Atom       Si21         O22          C23          C24          P25     
 Charge   -0.34345     -0.26447     -0.16891     -0.10703      0.91467
   
 Atom       O26          N27          C28          C29          C30     
 Charge   -0.59021     -0.66730      0.21915      0.16741      0.42496
   
 Atom       C31          C32          C33          C34          C35     
 Charge    0.14078      0.16686      0.47793     -0.17752     -0.25206
   
 Atom       C36          C37          C38          C39          C40     
 Charge   -0.17747     -0.27403     -0.20352     -0.42121     -0.16489
   
 Atom       C41          C42          C43          C44          C45     
 Charge   -0.09241     -0.12731     -0.24168     -0.45988     -0.32228
   
 Atom       C46          C47          C48          C49          C50     
 Charge   -0.14789     -0.16605     -0.09868     -0.09943     -0.19382
   
 Atom       C51          C52          C53          C54          C55     
 Charge   -0.04824     -0.13938     -0.17295     -0.04978     -0.17134
   
 Atom       C56          C57          C58          C59          C60     
 Charge   -0.12943     -0.14376     -0.16395     -0.15677     -0.09190
   
 Atom       C61          C62          C63          C64          C65     
 Charge    0.06361     -0.20108     -0.11895     -0.04918     -0.19935
   
 Atom       C66          C67          C68          C69          C70     
 Charge    0.11789     -0.32951      0.07138     -0.23314      0.25233
   
 Atom       N71          S72          O73          O74          C75     
 Charge   -0.56824      0.76305     -0.43460     -0.49851      0.52503
   
 Atom       C76          C77          C78          C79          N80     
 Charge   -0.44591      0.22859     -0.46407      0.48578     -0.66105
   
 Atom       N81          C82          C83          C84          C85     
 Charge   -0.04706     -0.00950     -0.16560     -0.23584     -0.09092
   
 Atom       H86          H87          H88          H89          H90     
 Charge    0.10797      0.15574      0.15355      0.15528      0.13880
   
 Atom       H91          H92          H93          H94          H95     
 Charge    0.13118      0.21515      0.16599      0.15237      0.13883
   
 Atom       H96          H97          H98          H99          H100    
 Charge    0.12935      0.11687      0.14305      0.14151      0.12582
   
 Atom       H101         H102         H103         H104         H105    
 Charge    0.20790      0.14045      0.10164      0.12299      0.13439
   
 Atom       H106         H107         H108         H109         H110    
 Charge    0.21157      0.16886      0.14294      0.14466      0.13644
   
 Atom       H111         H112         H113         H114         H115    
 Charge    0.12555      0.14058      0.11489      0.13921      0.12460
   
 Atom       H116         H117         H118         H119         H120    
 Charge    0.10609      0.13805      0.13723      0.13543      0.14112
   
 Atom       H121         H122         H123         H124         H125    
 Charge    0.14129      0.13423      0.01197      0.13582      0.14425
   
 Atom       H126         H127         H128         H129         H130    
 Charge    0.13194      0.10958      0.21936      0.07560      0.16339
   
 Atom       H131         H132         H133         H134         H135    
 Charge    0.13383      0.18832      0.09886      0.18436      0.05106
   
 Atom       H136         H137         H138         H139         H140    
 Charge    0.33162      0.17162      0.17799      0.21483      0.19326
   
 Atom       S141         O142         C143         O144         F145    
 Charge    0.89890     -0.52099      0.42501     -0.55598     -0.13770
   
 Atom       F146         F147         H148    
 Charge   -0.12865     -0.14214      0.39472
  
  sum of atomic charges:     0.000000
   
 RMS Error   1.02E-03 hartrees
 
  Peak memory usage:    588 Mb
  
  end of program ch
   
 Time(ch)  user:       18.0  user+sys:       18.0  wallclock:       19.2
  
  start of program post
  
  Writing input files for PBF
  Peak memory usage:    536 Mb
  
  end of program post
   
 Time(post)  user:        0.0  user+sys:        0.0  wallclock:        0.2

  start of program pbf

Pbf Version 4.00

Molecular surface area:      818.11235   [A2]
Reaction field energy:       -21.83131   [kT]
  Peak memory usage: 560 Mb

  end of program pbf

 Time(pbf)  user:       10.6  user+sys:       10.6  wallclock:       11.3
  
  start of program solv
  
   number of surface charges from PBF   13394
   sum of surface charges     -0.00036
   
  nuclear repulsion energy.......   20833.844279411 hartrees
  Peak memory usage:    701 Mb
  
  end of program solv
   
 Time(solv)  user:       38.0  user+sys:       38.0  wallclock:       38.5
  
  start of program scf
  
  
       i  u  d  i  g                   
       t  p  i  c  r                                 RMS    maximum
       e  d  i  u  i                       energy  density   DIIS  
       r  t  s  t  d       total energy    change  change    error 
  
etot    1  N  N  1  U   -5575.59421570836           9.9E-06  3.3E-04
etot    2  N  Y  1  U   -5575.59414516101 -7.1E-05  6.5E-06  5.5E-04
etot    3  N  Y  1  U   -5575.59424838462  1.0E-04  2.2E-07  1.4E-05
etot    4  N  N  1  U   -5575.59424843806  5.3E-08  0.0E+00  0.0E+00
  
  
 Energy components, in hartrees:
   (A)  Total zero-electron terms....   20836.03002043549
   (B)    Nuclear-nuclear............   20833.84427941077
   (C)    Nuclear-solvent............       2.18574102472
   (E)  Total one-electron terms.....  -49197.93251531166
   (F)    Electron-nuclear...........  -54731.73699432016
   (G)    Electron-solvent...........      -2.23048611004
   (H)    Kinetic....................    5536.03496511854
   (I)  Total two-electron terms.....   22786.30824643811
   (J)    Coulomb....................   23437.57766197030
   (K)    Exchange+Correlation.......    -651.26941553219
   (L)  Electronic energy............  -26411.62426887355  (E+I)
   (N)  Total quantum mech. energy...   -5575.59424843806  (A+L)
   (O)  Gas phase energy.............   -5575.55111971988
   (P)  Solution phase energy........   -5575.57187589540  (Q+R+S)
   (Q)    Total solute energy........   -5575.54950335274  (N-C-G)
   (R)    Total solvent energy.......      -0.02237254266  (C/2+G/2)
   (S)    Solute cavity energy.......       0.00000000000
   (U)  Reorganization energy........       0.00161636714  (Q-O)
   (V)  Solvation energy.............      -0.02075617552  (P-O)
  
 SCFE:  Solution phase energy: DFT(m06-2x)      -5575.57187589540 hartrees
        SCF iterations:   4
  
 
 HOMO energy:    -0.25652
 LUMO energy:    -0.06661
 
  Orbital energies (hartrees): 
   -90.17934   -90.15696   -78.20935   -67.00988   -67.00801   -25.29510
   -25.29237   -25.29220   -19.68976   -19.68712   -19.66223   -19.65777
   -19.63398   -19.63108   -19.60164   -14.82617   -14.81654   -14.79007
   -14.74195   -10.80896   -10.65760   -10.63506   -10.62725   -10.62639
   -10.62364   -10.60799   -10.60533   -10.59004   -10.58928   -10.58785
   -10.58154   -10.57899   -10.57290   -10.57266   -10.57258   -10.57003
   -10.56959   -10.56870   -10.56473   -10.56382   -10.56247   -10.56171
   -10.56159   -10.56125   -10.56107   -10.55781   -10.55531   -10.55510
   -10.55476   -10.55475   -10.55450   -10.55423   -10.55343   -10.55249
   -10.55244   -10.55231   -10.55202   -10.55128   -10.55081   -10.55044
   -10.55035   -10.55000   -10.54984   -10.54958   -10.54924   -10.54894
   -10.54822   -10.54804   -10.54796   -10.54786   -10.54775   -10.54688
   -10.54623   -10.54590   -10.54529   -10.54494   -10.54431   -10.54354
   -10.54255   -10.54232   -10.53995   -10.53934   -10.53884   -10.53860
   -10.53825   -10.53645   -10.53543   -10.53469   -10.53403   -10.52991
   -10.52883   -10.52241    -8.48973    -8.46547    -6.98859    -6.41197
    -6.41104    -6.41009    -6.38738    -6.38698    -6.38681    -5.54136
    -5.53896    -5.10710    -5.10596    -5.10445    -3.85114    -3.85088
    -3.85056    -3.84883    -3.84846    -3.84819    -1.46024    -1.36984
    -1.36700    -1.25311    -1.22837    -1.21843    -1.18453    -1.14144
    -1.11621    -1.10476    -1.08475    -1.08374    -1.06387    -0.99308
    -0.98373    -0.97037    -0.96983    -0.94761    -0.94397    -0.94365
    -0.93987    -0.93802    -0.93299    -0.92496    -0.92412    -0.91314
    -0.90583    -0.89837    -0.89278    -0.87782    -0.85576    -0.85087
    -0.84748    -0.84592    -0.84339    -0.83800    -0.83788    -0.83700
    -0.83569    -0.83255    -0.83098    -0.82888    -0.82835    -0.82723
    -0.82714    -0.82658    -0.82567    -0.82395    -0.81882    -0.80471
    -0.80303    -0.76391    -0.75720    -0.73895    -0.73137    -0.71617
    -0.71095    -0.70563    -0.69999    -0.69345    -0.69294    -0.69115
    -0.68620    -0.68573    -0.68478    -0.68295    -0.68026    -0.67834
    -0.67760    -0.67563    -0.67467    -0.67148    -0.67085    -0.66755
    -0.66571    -0.66377    -0.66081    -0.65882    -0.65620    -0.65561
    -0.65125    -0.64793    -0.63778    -0.62700    -0.61379    -0.60976
    -0.60877    -0.60383    -0.60080    -0.58720    -0.58356    -0.58218
    -0.58108    -0.57983    -0.57838    -0.57681    -0.57400    -0.57291
    -0.56489    -0.56292    -0.56144    -0.56072    -0.55303    -0.54928
    -0.54690    -0.54464    -0.54170    -0.53955    -0.53804    -0.53600
    -0.53389    -0.53011    -0.52753    -0.52554    -0.52407    -0.52294
    -0.52030    -0.51781    -0.51597    -0.51564    -0.51349    -0.51219
    -0.51090    -0.50915    -0.50804    -0.50449    -0.50334    -0.50241
    -0.50067    -0.49913    -0.49729    -0.49629    -0.49555    -0.49539
    -0.49399    -0.49338    -0.49156    -0.49074    -0.48994    -0.48858
    -0.48535    -0.48465    -0.48382    -0.48187    -0.48082    -0.47783
    -0.47767    -0.47484    -0.47414    -0.47283    -0.46934    -0.46630
    -0.46151    -0.45478    -0.45444    -0.45201    -0.44998    -0.44921
    -0.44657    -0.44570    -0.43592    -0.43422    -0.43286    -0.43061
    -0.42847    -0.42816    -0.42576    -0.42343    -0.42224    -0.42178
    -0.42034    -0.41838    -0.41641    -0.41264    -0.40957    -0.40786
    -0.40228    -0.40094    -0.39959    -0.39783    -0.39588    -0.39355
    -0.39313    -0.39294    -0.39251    -0.38930    -0.38827    -0.38644
    -0.38297    -0.38182    -0.38035    -0.37904    -0.37469    -0.36692
    -0.36352    -0.36175    -0.35535    -0.35409    -0.34801    -0.34772
    -0.34351    -0.34194    -0.34080    -0.34065    -0.33918    -0.33722
    -0.33230    -0.32907    -0.32414    -0.31924    -0.31231    -0.30865
    -0.30456    -0.30287    -0.30159    -0.30026    -0.29976    -0.29758
    -0.29356    -0.29274    -0.29187    -0.29058    -0.28932    -0.28623
    -0.28513    -0.28381    -0.27534    -0.25652    -0.06661    -0.02230
    -0.02015    -0.00301    -0.00199     0.00967     0.01405     0.01514
     0.01795     0.01808
 
  Peak memory usage:    859 Mb
  
  end of program scf
   
 Time(scf)  user:     7906.0  user+sys:     7937.0  wallclock:     8133.8
  
  start of program sole
  
    SCRF                   solvation energy
  iteration          Hartrees            kcal/mol
     0               0.0000000            0.0000
     1              -0.0191956          -12.0454
     2              -0.0205528          -12.8971
     3              -0.0208921          -13.1100
     4              -0.0207562          -13.0247
  
  stopping: solvation energy converged
  
  iterations:   4    sfinal:    -13.0247 kcal/mol
  
  Peak memory usage:    635 Mb
  
  end of program sole
   
 Time(sole)  user:        0.0  user+sys:        0.0  wallclock:        0.2
  
  start of program post
  
  Writing input files for PBF
  Peak memory usage:    536 Mb
  
  end of program post
   
 Time(post)  user:        0.0  user+sys:        0.0  wallclock:        0.2

 Total cpu seconds     user:   59212.000   user+sys:   59460.000
  
 Total elapsed time:    62031 seconds

Job Toru-NTf-Sulfonyl-4-chkp-unrestrained-uff-acc-fine-grid-sol_1 completed on tethys at Wed Feb 15 05:30:39 2017
