Job B3LYP_SPE_Toru-SiPh3-NTf-Type-I-E-3-chkp-unrestrained.mol started on tethys at Tue Nov 22 11:42:42 2016
jobid: tethys-0-58342f32

  +--------------------------------------------------------------------+
  |  Jaguar version 8.4, release  16                                   |
  |                                                                    |
  |  Copyright Schrodinger, Inc.                                       |
  |  All Rights Reserved.                                              |
  |                                                                    |
  |  The following have contributed to Jaguar (listed alphabetically): |
  |  Mike Beachy, Art Bochevarov, Dale Braden, Yixiang Cao,            |
  |  Chris Cortis, Rich Friesner, Bill Goddard, Hod Greeley,           |
  |  Tom Hughes, Jean-Marc Langlois, Daniel Mainz, Rob Murphy,         |
  |  Dean Philipp, Tom Pollard, Murco Ringnalda.                       |
  |                                                                    |
  |  Use of this program should be acknowledged in publications as:    |
  |                                                                    |
  |  Jaguar, version 8.4, Schrodinger, Inc., New York, NY, 2013.       |
  |                                                                    |
  |  A. D. Bochevarov, E. Harder, T. F. Hughes, J. R. Greenwood,       |
  |  D. A. Braden, D. M. Philipp, D. Rinaldo, M. D. Halls,             |
  |  J. Zhang, R. A. Friesner, "Jaguar: A High-Performance Quantum     |
  |  Chemistry Software Program with Strengths in Life and Materials   |
  |  Sciences", Int. J. Quantum Chem., 2013, 113(18), 2110-2142.       |
  +--------------------------------------------------------------------+
  
  start of program pre
  
  Job name: B3LYP_SPE_Toru-SiPh3-NTf-Type-I-E-3-chkp-unrestrained.mol
  Executables used: /usr/local/shared/schrodinger/current/jaguar-v84016/bin/Linux-x86_64
  Temporary files : /home/ab2144/.schrodinger/tmp/B3LYP_SPE_Toru-SiPh3-NTf-Type-I-E-3-chkp-unrestrained.mol
  Maestro file (input):  B3LYP_SPE_Toru-SiPh3-NTf-Type-I-E-3-chkp-unrestrained.mol.mae
  Maestro file (output): B3LYP_SPE_Toru-SiPh3-NTf-Type-I-E-3-chkp-unrestrained.mol.01.mae
  
  
  basis set:             6-31g**         
  net molecular charge:    0
  multiplicity:            1
  
  keygrid settings 
    wispc.....   7.500E-01
    ldens.....   0
    denspc....   7.500E-01
  
   grid     daf set  nls  grid set  Q type
  ------    -------  ---  --------  ------
  coarse       1      1       1        1
  medium       2      2       2        1
  fine         3      2       3        0
  ultrafine    4      2       4        1
  charge       0      1      -1        1
  gradient     5      2       4        1
  density      0      1       0        0
  DFT-fine     0      1     -13        0
  DFT-med.     0      1     -13        0
  DFT-grad     0      1     -13        0
  DFT-der2     0      1       0        0
  DFT-cphf     0      1       0        0
  LMP2-enrg    4      2       4        1
  LMP2-grad    5      2       2        1
  DFT-cphf2    0      1       0        0
  PBF-dens     0      1       0        0
  plotting     0      1       0        0
  
  idftgrdm  100
  ndftgrdm   50    0    0
  idftgrdf  111
  ndftgrdf   85    0    0
  idftgrdg  111
  ndftgrdg   80    3    0
  idftgrdu  433
  ndftgrdu  105    0    0
  idftgrdd  433
  ndftgrdd  105    0    0
  idftgrdc  433
  ndftgrdc   26    0    0
  idftgrdp  433
  ndftgrdp   18    0    0
  
  number of basis functions....         1680
  
 Input geometry:
                                   angstroms
  atom               x                 y                 z
  C1           -1.9392000000      5.0955000000      1.4946000000 
  C2           -2.5615000000      3.7735000000      1.2117000000 
  C3           -2.5762000000      5.9927000000      2.2561000000 
  C4           -3.7588000000      3.4790000000      1.7641000000 
  C5           -1.8687000000      2.7500000000      0.3753000000 
  C6           -4.4584000000      4.4817000000      2.6005000000 
  C7           -4.3873000000      2.1686000000      1.5081000000 
  C8           -3.8975000000      5.6740000000      2.8301000000 
  C9           -2.3649000000      1.5001000000      0.3051000000 
  C10          -0.6544000000      3.0939000000     -0.4007000000 
  C11          -3.7510000000      1.2349000000      0.7837000000 
  O12          -1.6557000000      0.5166000000     -0.3388000000 
  Si13         -4.6645000000     -0.3099000000      0.2663000000 
  C14          -0.6783000000      4.0381000000     -1.3691000000 
  C15           0.6341000000      2.4361000000     -0.0404000000 
  C16           0.5967000000      4.5204000000     -1.9501000000 
  C17          -1.9356000000      4.6388000000     -1.8841000000 
  C18           1.7626000000      4.0524000000     -1.4918000000 
  C19           0.5513000000      5.5581000000     -2.9994000000 
  C20           1.7958000000      2.9961000000     -0.4529000000 
  Si21          3.4721000000      2.4677000000      0.1879000000 
  O22           0.6372000000      1.3655000000      0.8250000000 
  C23          -1.9003000000      5.5774000000     -2.8373000000 
  C24          -0.6220000000      6.0511000000     -3.4103000000 
  P25          -0.2767000000      0.0539000000      0.4236000000 
  O26          -0.5359000000     -0.6564000000      1.7213000000 
  N27           0.4817000000     -0.9010000000     -0.6465000000 
  C28          -6.4684000000     -0.1854000000      0.7122000000 
  C29          -4.6966000000     -0.4846000000     -1.5842000000 
  C30          -3.8925000000     -1.7741000000      1.1117000000 
  C31           3.9342000000      0.8624000000     -0.6264000000 
  C32           4.7357000000      3.7634000000     -0.2430000000 
  C33           3.5533000000      2.4051000000      2.0463000000 
  C34          -7.0756000000     -1.1038000000      1.4835000000 
  C35          -7.2658000000      0.9292000000      0.1444000000 
  C36          -4.2825000000      0.5097000000     -2.3881000000 
  C37          -5.3153000000     -1.6923000000     -2.1825000000 
  C38          -3.8869000000     -1.8351000000      2.4540000000 
  C39          -3.3746000000     -2.9224000000      0.3293000000 
  C40           4.1942000000     -0.2389000000      0.0927000000 
  C41           4.0708000000      0.8162000000     -2.1021000000 
  C42           4.5463000000      5.0322000000      0.1579000000 
  C43           5.9748000000      3.4103000000     -0.9790000000 
  C44           2.5409000000      2.8445000000      2.8138000000 
  C45           4.8266000000      1.9962000000      2.6886000000 
  C46          -8.5165000000     -0.9822000000      1.7895000000 
  C47          -9.2267000000      0.0341000000      1.2861000000 
  C48          -8.5713000000      1.0345000000      0.4203000000 
  C49          -4.3970000000      0.3758000000     -3.8557000000 
  C50          -4.9250000000     -0.7311000000     -4.3900000000 
  C51          -5.4127000000     -1.8131000000     -3.5119000000 
  C52          -3.4596000000     -3.0714000000      3.1401000000 
  C53          -3.0635000000     -4.1309000000      2.4256000000 
  C54          -2.9924000000     -4.0429000000      0.9532000000 
  C55           4.6031000000     -1.4903000000     -0.5782000000 
  C56           4.7455000000     -1.5206000000     -1.9079000000 
  C57           4.4706000000     -0.3093000000     -2.7072000000 
  C58           5.5436000000      6.0730000000     -0.1659000000 
  C59           6.6500000000      5.7523000000     -0.8464000000 
  C60           6.8785000000      4.3553000000     -1.2672000000 
  C61           2.6792000000      2.8698000000      4.2851000000 
  C62           3.8269000000      2.4893000000      4.8585000000 
  C63           4.9555000000      2.0372000000      4.0204000000 
  C64           4.7060000000     -3.0445000000      3.7593000000 
  C65           3.8902000000     -3.7285000000      2.8642000000 
  C66           2.7754000000     -3.0976000000      2.2833000000 
  C67           2.4779000000     -1.7740000000      2.6417000000 
  C68           3.2768000000     -1.1094000000      3.5717000000 
  C69           4.3947000000     -1.7315000000      4.1234000000 
  C70           1.9416000000     -3.9120000000      1.3747000000 
  N71           1.4784000000     -3.4453000000      0.1754000000 
  S72           0.9411000000     -4.5802000000     -1.0005000000 
  O73           0.7962000000     -5.8521000000     -0.2822000000 
  O74          -0.1820000000     -3.9818000000     -1.7110000000 
  C75           2.3541000000     -4.7172000000     -2.1244000000 
  C76           2.2155000000     -4.3267000000     -3.4513000000 
  C77           3.3310000000     -4.5118000000     -4.2690000000 
  C78           4.4899000000     -5.0577000000     -3.7212000000 
  C79           4.5033000000     -5.3942000000     -2.3649000000 
  N80           3.4441000000     -5.2297000000     -1.5661000000 
  N81          -0.2151000000     -3.0678000000      2.8724000000 
  C82          -0.0030000000     -2.8879000000      4.1763000000 
  C83           0.5188000000     -4.0743000000      4.7403000000 
  C84           0.6415000000     -4.9811000000      3.7037000000 
  C85           0.2582000000     -4.3306000000      2.4901000000 
  H86          -0.9629000000      5.3428000000      1.0991000000 
  H87          -2.1201000000      6.9530000000      2.4596000000 
  H88          -5.4266000000      4.2533000000      3.0284000000 
  H89          -5.3839000000      1.9925000000      1.8891000000 
  H90          -4.4088000000      6.4061000000      3.4418000000 
  H91          -2.8997000000      4.3122000000     -1.5156000000 
  H92           2.6879000000      4.4239000000     -1.9132000000 
  H93           1.4685000000      5.9302000000     -3.4404000000 
  H94          -2.8274000000      5.9975000000     -3.2058000000 
  H95          -0.6409000000      6.8123000000     -4.1795000000 
  H96          -6.5361000000     -1.9511000000      1.8808000000 
  H97          -6.7935000000      1.6647000000     -0.4951000000 
  H98          -3.8824000000      1.4292000000     -1.9848000000 
  H99          -5.6954000000     -2.4814000000     -1.5457000000 
  H100         -4.2620000000     -1.0101000000      3.0473000000 
  H101         -3.3082000000     -2.8713000000     -0.7470000000 
  H102          4.1341000000     -0.2207000000      1.1665000000 
  H103          3.8616000000      1.6979000000     -2.6949000000 
  H104          3.6592000000      5.3111000000      0.7136000000 
  H105          6.1704000000      2.3891000000     -1.2738000000 
  H106          1.6278000000      3.2230000000      2.3781000000 
  H107          5.6619000000      1.6704000000      2.0814000000 
  H108         -8.9964000000     -1.7202000000      2.4192000000 
  H109        -10.2823000000      0.1226000000      1.5081000000 
  H110         -9.1499000000      1.8505000000      0.0072000000 
  H111         -4.0492000000      1.1755000000     -4.4968000000 
  H112         -5.0062000000     -0.8312000000     -5.4646000000 
  H113         -5.8601000000     -2.6978000000     -3.9458000000 
  H114         -3.4885000000     -3.1251000000      4.2206000000 
  H115         -2.7603000000     -5.0414000000      2.9261000000 
  H116         -2.6220000000     -4.8839000000      0.3812000000 
  H117          4.7990000000     -2.3778000000      0.0097000000 
  H118          5.0555000000     -2.4316000000     -2.4011000000 
  H119          4.5768000000     -0.3395000000     -3.7837000000 
  H120          5.3760000000      7.0949000000      0.1485000000 
  H121          7.3821000000      6.5132000000     -1.0839000000 
  H122          7.7838000000      4.0963000000     -1.8010000000 
  H123          1.8528000000      3.2080000000      4.8967000000 
  H124          3.9310000000      2.5127000000      5.9354000000 
  H125          5.8852000000      1.7369000000      4.4858000000 
  H126          5.5777000000     -3.5373000000      4.1789000000 
  H127          4.1240000000     -4.7551000000      2.5955000000 
  H128          1.6244000000     -1.2597000000      2.2168000000 
  H129          3.0137000000     -0.0969000000      3.8533000000 
  H130          5.0191000000     -1.1999000000      4.8352000000 
  H131          2.2404000000     -4.9531000000      1.3099000000 
  H132          1.3007000000     -3.8697000000     -3.8033000000 
  H133          3.2937000000     -4.2217000000     -5.3140000000 
  H134          5.3768000000     -5.2121000000     -4.3267000000 
  H135          5.3956000000     -5.8082000000     -1.9020000000 
  H136         -0.4837000000     -2.2781000000      2.2496000000 
  H137         -0.2074000000     -1.9330000000      4.6402000000 
  H138          0.7771000000     -4.2151000000      5.7798000000 
  H139          0.9986000000     -6.0003000000      3.7635000000 
  H140         -0.1993000000     -4.8436000000      1.6551000000 
  S141          0.7621000000     -0.5722000000     -2.1946000000 
  O142          1.6975000000     -1.5850000000     -2.6988000000 
  C143         -0.8528000000     -0.9337000000     -3.1136000000 
  O144          1.0069000000      0.8472000000     -2.4886000000 
  F145         -1.7006000000     -1.6529000000     -2.3822000000 
  F146         -1.4334000000      0.2210000000     -3.4494000000 
  F147         -0.5694000000     -1.6097000000     -4.2380000000 
  H148          1.2093000000     -2.4517000000     -0.0401000000 
   
  principal moments of inertia:
        amu*angstrom^2:    20814.02925    25080.67409    31364.84130
                g*cm^2: 3.45625044E-36 4.16474340E-36 5.20825378E-36
   
  rotational constants:
               cm^(-1):      0.00080992      0.00067214      0.00053747
                   GHz:      0.02428069      0.02015014      0.01611291
   
  Molecular weight:    1308.28 amu
   
  Stoichiometry: Si2C73PN4H56S2O7F3
  Molecular Point Group: C1      
  Point Group used: C1
  
  nuclear repulsion energy.......   20902.912050654 hartrees
 
 Non-default options chosen:
   SCF calculation type: DFT(b3lyp)                  
   DFT=Becke_3_Parameter/HF+Slater+Becke88+VWN+LYP (B3LYP)
   Solvation energy will be computed using PBF
     -solute cavity energy will not be included
     -surface area terms will not be included
   Highest accuracy cutoffs used in SCF
   Solvent: other                                                           
   Internal dielectric constant:    1.000
   Continuum dielectric constant:   2.380
   Solvent probe molecule radius:   2.760
  
 Temporary integer options set:
     73=  2
  
  atom       vdw   vdw2    cov     mass  grid  daf  charge   basis
  C1        1.949  1.900  0.770   12.000    Y    Y      Y    6-31g**
  C2        1.949  1.900  0.770   12.000    Y    Y      Y    6-31g**
  C3        1.949  1.900  0.770   12.000    Y    Y      Y    6-31g**
  C4        1.949  1.900  0.770   12.000    Y    Y      Y    6-31g**
  C5        1.949  1.900  0.770   12.000    Y    Y      Y    6-31g**
  C6        1.949  1.900  0.770   12.000    Y    Y      Y    6-31g**
  C7        1.949  1.900  0.770   12.000    Y    Y      Y    6-31g**
  C8        1.949  1.900  0.770   12.000    Y    Y      Y    6-31g**
  C9        1.949  1.900  0.770   12.000    Y    Y      Y    6-31g**
  C10       1.949  1.900  0.770   12.000    Y    Y      Y    6-31g**
  C11       1.949  1.900  0.770   12.000    Y    Y      Y    6-31g**
  O12       1.702  1.600  0.730   15.995    Y    Y      Y    6-31g**
  Si13      2.217  2.147  1.110   27.977    Y    Y      Y    6-31g**
  C14       1.949  1.900  0.770   12.000    Y    Y      Y    6-31g**
  C15       1.949  1.900  0.770   12.000    Y    Y      Y    6-31g**
  C16       1.949  1.900  0.770   12.000    Y    Y      Y    6-31g**
  C17       1.949  1.900  0.770   12.000    Y    Y      Y    6-31g**
  C18       1.949  1.900  0.770   12.000    Y    Y      Y    6-31g**
  C19       1.949  1.900  0.770   12.000    Y    Y      Y    6-31g**
  C20       1.949  1.900  0.770   12.000    Y    Y      Y    6-31g**
  Si21      2.217  2.147  1.110   27.977    Y    Y      Y    6-31g**
  O22       1.702  1.600  0.730   15.995    Y    Y      Y    6-31g**
  C23       1.949  1.900  0.770   12.000    Y    Y      Y    6-31g**
  C24       1.949  1.900  0.770   12.000    Y    Y      Y    6-31g**
  P25       2.147  2.074  1.060   30.974    Y    Y      Y    6-31g**
  O26       1.702  1.600  0.730   15.995    Y    Y      Y    6-31g**
  N27       1.831  1.600  0.750   14.003    Y    Y      Y    6-31g**
  C28       1.949  1.900  0.770   12.000    Y    Y      Y    6-31g**
  C29       1.949  1.900  0.770   12.000    Y    Y      Y    6-31g**
  C30       1.949  1.900  0.770   12.000    Y    Y      Y    6-31g**
  C31       1.949  1.900  0.770   12.000    Y    Y      Y    6-31g**
  C32       1.949  1.900  0.770   12.000    Y    Y      Y    6-31g**
  C33       1.949  1.900  0.770   12.000    Y    Y      Y    6-31g**
  C34       1.949  1.900  0.770   12.000    Y    Y      Y    6-31g**
  C35       1.949  1.900  0.770   12.000    Y    Y      Y    6-31g**
  C36       1.949  1.900  0.770   12.000    Y    Y      Y    6-31g**
  C37       1.949  1.900  0.770   12.000    Y    Y      Y    6-31g**
  C38       1.949  1.900  0.770   12.000    Y    Y      Y    6-31g**
  C39       1.949  1.900  0.770   12.000    Y    Y      Y    6-31g**
  C40       1.949  1.900  0.770   12.000    Y    Y      Y    6-31g**
  C41       1.949  1.900  0.770   12.000    Y    Y      Y    6-31g**
  C42       1.949  1.900  0.770   12.000    Y    Y      Y    6-31g**
  C43       1.949  1.900  0.770   12.000    Y    Y      Y    6-31g**
  C44       1.949  1.900  0.770   12.000    Y    Y      Y    6-31g**
  C45       1.949  1.900  0.770   12.000    Y    Y      Y    6-31g**
  C46       1.949  1.900  0.770   12.000    Y    Y      Y    6-31g**
  C47       1.949  1.900  0.770   12.000    Y    Y      Y    6-31g**
  C48       1.949  1.900  0.770   12.000    Y    Y      Y    6-31g**
  C49       1.949  1.900  0.770   12.000    Y    Y      Y    6-31g**
  C50       1.949  1.900  0.770   12.000    Y    Y      Y    6-31g**
  C51       1.949  1.900  0.770   12.000    Y    Y      Y    6-31g**
  C52       1.949  1.900  0.770   12.000    Y    Y      Y    6-31g**
  C53       1.949  1.900  0.770   12.000    Y    Y      Y    6-31g**
  C54       1.949  1.900  0.770   12.000    Y    Y      Y    6-31g**
  C55       1.949  1.900  0.770   12.000    Y    Y      Y    6-31g**
  C56       1.949  1.900  0.770   12.000    Y    Y      Y    6-31g**
  C57       1.949  1.900  0.770   12.000    Y    Y      Y    6-31g**
  C58       1.949  1.900  0.770   12.000    Y    Y      Y    6-31g**
  C59       1.949  1.900  0.770   12.000    Y    Y      Y    6-31g**
  C60       1.949  1.900  0.770   12.000    Y    Y      Y    6-31g**
  C61       1.949  1.900  0.770   12.000    Y    Y      Y    6-31g**
  C62       1.949  1.900  0.770   12.000    Y    Y      Y    6-31g**
  C63       1.949  1.900  0.770   12.000    Y    Y      Y    6-31g**
  C64       1.949  1.900  0.770   12.000    Y    Y      Y    6-31g**
  C65       1.949  1.900  0.770   12.000    Y    Y      Y    6-31g**
  C66       1.949  1.900  0.770   12.000    Y    Y      Y    6-31g**
  C67       1.949  1.900  0.770   12.000    Y    Y      Y    6-31g**
  C68       1.949  1.900  0.770   12.000    Y    Y      Y    6-31g**
  C69       1.949  1.900  0.770   12.000    Y    Y      Y    6-31g**
  C70       1.949  1.900  0.770   12.000    Y    Y      Y    6-31g**
  N71       1.831  1.600  0.750   14.003    Y    Y      Y    6-31g**
  S72       2.070  1.900  1.020   31.972    Y    Y      Y    6-31g**
  O73       1.702  1.600  0.730   15.995    Y    Y      Y    6-31g**
  O74       1.702  1.600  0.730   15.995    Y    Y      Y    6-31g**
  C75       1.949  1.900  0.770   12.000    Y    Y      Y    6-31g**
  C76       1.949  1.900  0.770   12.000    Y    Y      Y    6-31g**
  C77       1.949  1.900  0.770   12.000    Y    Y      Y    6-31g**
  C78       1.949  1.900  0.770   12.000    Y    Y      Y    6-31g**
  C79       1.949  1.900  0.770   12.000    Y    Y      Y    6-31g**
  N80       1.831  1.600  0.750   14.003    Y    Y      Y    6-31g**
  N81       1.831  1.600  0.750   14.003    Y    Y      Y    6-31g**
  C82       1.949  1.900  0.770   12.000    Y    Y      Y    6-31g**
  C83       1.949  1.900  0.770   12.000    Y    Y      Y    6-31g**
  C84       1.949  1.900  0.770   12.000    Y    Y      Y    6-31g**
  C85       1.949  1.900  0.770   12.000    Y    Y      Y    6-31g**
  H86       1.597  1.150  0.320    1.008    Y    Y      Y    6-31g**
  H87       1.597  1.150  0.320    1.008    Y    Y      Y    6-31g**
  H88       1.597  1.150  0.320    1.008    Y    Y      Y    6-31g**
  H89       1.597  1.150  0.320    1.008    Y    Y      Y    6-31g**
  H90       1.597  1.150  0.320    1.008    Y    Y      Y    6-31g**
  H91       1.597  1.150  0.320    1.008    Y    Y      Y    6-31g**
  H92       1.597  1.150  0.320    1.008    Y    Y      Y    6-31g**
  H93       1.597  1.150  0.320    1.008    Y    Y      Y    6-31g**
  H94       1.597  1.150  0.320    1.008    Y    Y      Y    6-31g**
  H95       1.597  1.150  0.320    1.008    Y    Y      Y    6-31g**
  H96       1.597  1.150  0.320    1.008    Y    Y      Y    6-31g**
  H97       1.597  1.150  0.320    1.008    Y    Y      Y    6-31g**
  H98       1.597  1.150  0.320    1.008    Y    Y      Y    6-31g**
  H99       1.597  1.150  0.320    1.008    Y    Y      Y    6-31g**
  H100      1.597  1.150  0.320    1.008    Y    Y      Y    6-31g**
  H101      1.597  1.150  0.320    1.008    Y    Y      Y    6-31g**
  H102      1.597  1.150  0.320    1.008    Y    Y      Y    6-31g**
  H103      1.597  1.150  0.320    1.008    Y    Y      Y    6-31g**
  H104      1.597  1.150  0.320    1.008    Y    Y      Y    6-31g**
  H105      1.597  1.150  0.320    1.008    Y    Y      Y    6-31g**
  H106      1.597  1.150  0.320    1.008    Y    Y      Y    6-31g**
  H107      1.597  1.150  0.320    1.008    Y    Y      Y    6-31g**
  H108      1.597  1.150  0.320    1.008    Y    Y      Y    6-31g**
  H109      1.597  1.150  0.320    1.008    Y    Y      Y    6-31g**
  H110      1.597  1.150  0.320    1.008    Y    Y      Y    6-31g**
  H111      1.597  1.150  0.320    1.008    Y    Y      Y    6-31g**
  H112      1.597  1.150  0.320    1.008    Y    Y      Y    6-31g**
  H113      1.597  1.150  0.320    1.008    Y    Y      Y    6-31g**
  H114      1.597  1.150  0.320    1.008    Y    Y      Y    6-31g**
  H115      1.597  1.150  0.320    1.008    Y    Y      Y    6-31g**
  H116      1.597  1.150  0.320    1.008    Y    Y      Y    6-31g**
  H117      1.597  1.150  0.320    1.008    Y    Y      Y    6-31g**
  H118      1.597  1.150  0.320    1.008    Y    Y      Y    6-31g**
  H119      1.597  1.150  0.320    1.008    Y    Y      Y    6-31g**
  H120      1.597  1.150  0.320    1.008    Y    Y      Y    6-31g**
  H121      1.597  1.150  0.320    1.008    Y    Y      Y    6-31g**
  H122      1.597  1.150  0.320    1.008    Y    Y      Y    6-31g**
  H123      1.597  1.150  0.320    1.008    Y    Y      Y    6-31g**
  H124      1.597  1.150  0.320    1.008    Y    Y      Y    6-31g**
  H125      1.597  1.150  0.320    1.008    Y    Y      Y    6-31g**
  H126      1.597  1.150  0.320    1.008    Y    Y      Y    6-31g**
  H127      1.597  1.150  0.320    1.008    Y    Y      Y    6-31g**
  H128      1.597  1.150  0.320    1.008    Y    Y      Y    6-31g**
  H129      1.597  1.150  0.320    1.008    Y    Y      Y    6-31g**
  H130      1.597  1.150  0.320    1.008    Y    Y      Y    6-31g**
  H131      1.597  1.150  0.320    1.008    Y    Y      Y    6-31g**
  H132      1.597  1.150  0.320    1.008    Y    Y      Y    6-31g**
  H133      1.597  1.150  0.320    1.008    Y    Y      Y    6-31g**
  H134      1.597  1.150  0.320    1.008    Y    Y      Y    6-31g**
  H135      1.597  1.150  0.320    1.008    Y    Y      Y    6-31g**
  H136      1.597  1.150  0.320    1.008    Y    Y      Y    6-31g**
  H137      1.597  1.150  0.320    1.008    Y    Y      Y    6-31g**
  H138      1.597  1.150  0.320    1.008    Y    Y      Y    6-31g**
  H139      1.597  1.150  0.320    1.008    Y    Y      Y    6-31g**
  H140      1.597  1.150  0.320    1.008    Y    Y      Y    6-31g**
  S141      2.070  1.900  1.020   31.972    Y    Y      Y    6-31g**
  O142      1.702  1.600  0.730   15.995    Y    Y      Y    6-31g**
  C143      1.949  1.900  0.770   12.000    Y    Y      Y    6-31g**
  O144      1.702  1.600  0.730   15.995    Y    Y      Y    6-31g**
  F145      1.736  1.682  0.720   18.998    Y    Y      Y    6-31g**
  F146      1.736  1.682  0.720   18.998    Y    Y      Y    6-31g**
  F147      1.736  1.682  0.720   18.998    Y    Y      Y    6-31g**
  H148      1.597  1.150  0.320    1.008    Y    Y      Y    6-31g**
  
  Peak memory usage:    528 Mb
  
  end of program pre
   
 Time(pre)  user:        0.0  user+sys:        0.0  wallclock:        0.4
  
  start of program onee
  
  smallest eigenvalue of S:    2.307E-04
  number of canonical orbitals.....         1674
  Peak memory usage:    707 Mb
  
  end of program onee
   
 Time(onee)  user:       25.0  user+sys:       26.0  wallclock:       26.8
  
  start of program hfig
  
  initial wavefunction generated automatically from atomic wavefunctions
 
  Irreducible     Total no   No of occupied orbitals 
  representation  orbitals   Shell_1  Shell_2    ...
  No Symm         1674        340
  ------------------------
  Orbital occupation/shell    1.000
 
  Peak memory usage:    646 Mb
  
  end of program hfig
   
 Time(hfig)  user:       36.0  user+sys:       36.0  wallclock:       37.7
  
  start of program probe
  
  Peak memory usage:    640 Mb
  
  end of program probe
   
 Time(probe)  user:       28.0  user+sys:       28.0  wallclock:       28.9
  
  start of program grid
  
  
   grid     grid set  grid #  grid sym
  ------    --------  ------  --------
  coarse        0        0        1
  medium        2        1        1
  fine          0        0        1
  ultrafine     4        2        1
  charge       -1        3        1
  gradient      4        2        1
  density       0        0        1
  DFT-fine    -13        4        1
  DFT-med.    -13        4        1
  DFT-grad    -13        4        1
  DFT-der2      0        0        1
  DFT-cphf      0        0        1
  LMP2-enrg     4        2        1
  LMP2-grad     2        1        1
  DFT-cphf2     0        0        1
  PBF-dens      0        0        1
  plotting      0        0        1
  
   
  number of gridpoints: 
     atom        C1       C2       C3       C4       C5       C6       C7
  grid # 1       97      102       94      102      100       96       93
  grid # 2      337      360      336      366      356      337      336
  grid # 3       31       25       40       49       14       46       25
  grid # 4    14816    14816    14816    14816    14816    14816    14816
   
  number of gridpoints: 
     atom        C8       C9      C10      C11      O12     Si13      C14
  grid # 1       94       95      100       99      111      470      101
  grid # 2      335      351      354      361      432      470      360
  grid # 3       48       15       10       16       30        8       22
  grid # 4    14816    14816    14816    14816    23902    22912    14816
   
  number of gridpoints: 
     atom       C15      C16      C17      C18      C19      C20     Si21
  grid # 1       97      101       96       94       97      101      473
  grid # 2      356      366      338      332      338      361      473
  grid # 3        7       36       29       17       46       10        8
  grid # 4    14816    14816    14816    14816    14816    14816    22912
   
  number of gridpoints: 
     atom       O22      C23      C24      P25      O26      N27      C28
  grid # 1      113       95       94      445      118      108      100
  grid # 2      440      338      338      445      454      389      360
  grid # 3       46       37       47        6       78       22       12
  grid # 4    23902    14816    14816    23204    23902    15000    14816
   
  number of gridpoints: 
     atom       C29      C30      C31      C32      C33      C34      C35
  grid # 1       99      101       99      100       99       92       94
  grid # 2      357      358      358      358      358      337      334
  grid # 3        9        7        7       12       11       27       22
  grid # 4    14816    14816    14816    14816    14816    14816    14816
   
  number of gridpoints: 
     atom       C36      C37      C38      C39      C40      C41      C42
  grid # 1       92       94       95       96       92       93       92
  grid # 2      332      335      333      336      333      328      335
  grid # 3       13       22        9       19       18        7       21
  grid # 4    14816    14816    14816    14816    14816    14816    14816
   
  number of gridpoints: 
     atom       C43      C44      C45      C46      C47      C48      C49
  grid # 1       96       93       94       94       94       93       93
  grid # 2      340      334      334      335      336      335      331
  grid # 3       29       16       19       45       46       39       26
  grid # 4    14816    14816    14816    14816    14816    14816    14816
   
  number of gridpoints: 
     atom       C50      C51      C52      C53      C54      C55      C56
  grid # 1       93       93       93       94       93       93       93
  grid # 2      335      335      333      332      332      334      330
  grid # 3       36       35       15       25       28       26       25
  grid # 4    14816    14816    14816    14816    14816    14816    14816
   
  number of gridpoints: 
     atom       C57      C58      C59      C60      C61      C62      C63
  grid # 1       93       93       94       94       93       93       93
  grid # 2      330      335      336      336      333      331      331
  grid # 3       17       39       45       43       24       27       26
  grid # 4    14816    14816    14816    14816    14816    14816    14816
   
  number of gridpoints: 
     atom       C64      C65      C66      C67      C68      C69      C70
  grid # 1       95       95       98       95       95       95       91
  grid # 2      331      333      355      326      331      331      323
  grid # 3       32       16        8        8       16       28        7
  grid # 4    14816    14816    14816    14816    14816    14816    14816
   
  number of gridpoints: 
     atom       N71      S72      O73      O74      C75      C76      C77
  grid # 1       97      441      118      120       98       96       96
  grid # 2      357      441      488      479      359      325      330
  grid # 3       11       12      227      122       30       34       32
  grid # 4    15000    32664    23902    23902    14816    14816    14816
   
  number of gridpoints: 
     atom       C78      C79      N80      N81      C82      C83      C84
  grid # 1       96       96      112       96       94       93       93
  grid # 2      329      337      417      342      328      329      329
  grid # 3       29       28       86        9       11       21       12
  grid # 4    14816    14816    15000    15000    14816    14816    14816
   
  number of gridpoints: 
     atom       C85      H86      H87      H88      H89      H90      H91
  grid # 1       92      111      118      118      110      118      112
  grid # 2      324      434      452      446      425      453      429
  grid # 3        6      228      416      361      175      424      207
  grid # 4    14816    16416    16416    16416    16416    16416    16416
   
  number of gridpoints: 
     atom       H92      H93      H94      H95      H96      H97      H98
  grid # 1      110      118      118      118      111      113      109
  grid # 2      425      443      448      450      435      434      422
  grid # 3      169      363      401      417      218      249      148
  grid # 4    16416    16416    16416    16416    16416    16416    16416
   
  number of gridpoints: 
     atom       H99     H100     H101     H102     H103     H104     H105
  grid # 1      113      111      108      105      111      113      111
  grid # 2      432      440      419      415      430      439      432
  grid # 3      243      262      128       88      209      258      221
  grid # 4    16416    16416    16416    16416    16416    16416    16416
   
  number of gridpoints: 
     atom      H106     H107     H108     H109     H110     H111     H112
  grid # 1      110      112      118      118      118      116      117
  grid # 2      425      432      452      453      452      445      452
  grid # 3      175      241      420      424      420      345      410
  grid # 4    16416    16416    16416    16416    16416    16416    16416
   
  number of gridpoints: 
     atom      H113     H114     H115     H116     H117     H118     H119
  grid # 1      118      117      115      114      113      112      117
  grid # 2      452      446      443      439      434      434      450
  grid # 3      419      351      317      283      239      230      371
  grid # 4    16416    16416    16416    16416    16416    16416    16416
   
  number of gridpoints: 
     atom      H120     H121     H122     H123     H124     H125     H126
  grid # 1      118      118      118      117      117      117      118
  grid # 2      452      453      453      451      452      445      449
  grid # 3      414      425      423      392      403      346      413
  grid # 4    16416    16416    16416    16416    16416    16416    16416
   
  number of gridpoints: 
     atom      H127     H128     H129     H130     H131     H132     H133
  grid # 1      112      105      110      116      104      110      117
  grid # 2      439      405      422      440      412      429      453
  grid # 3      285       73      150      317      117      201      405
  grid # 4    16416    16416    16416    16416    16416    16416    16416
   
  number of gridpoints: 
     atom      H134     H135     H136     H137     H138     H139     H140
  grid # 1      117      117      102      115      117      115      105
  grid # 2      451      453      400      446      459      454      416
  grid # 3      404      415       65      327      443      392      100
  grid # 4    16416    16416    16416    16416    16416    16416    16416
   
  number of gridpoints: 
     atom      S141     O142     C143     O144     F145     F146     F147
  grid # 1      439      119       90      119      507      516      531
  grid # 2      439      470      322      477      507      516      531
  grid # 3       11       65        7      114       60      117      237
  grid # 4    32664    23902    14816    23902    23920    23920    23920
   
  number of gridpoints: 
     atom      H148    total
  grid # 1      100    18365
  grid # 2      397    57868
  grid # 3       62    19413
  grid # 4    16416  2434294
   
  Peak memory usage:    671 Mb
  
  end of program grid
   
 Time(grid)  user:      378.0  user+sys:      381.0  wallclock:      432.9
  
  start of program rwr
  
  Peak memory usage:    661 Mb
  
  end of program rwr
   
 Time(rwr)  user:       63.0  user+sys:       67.0  wallclock:       79.7
  
  start of program scf
  
 number of electrons..........        680
 number of alpha electrons....        340
 number of beta electrons.....        340
 number of orbitals, total....       1674
 number of doubly-occ'd orbs..        340
 number of open shell orbs....          0
 number of occupied orbitals..        340
 number of virtual orbitals...       1334
 number of hamiltonians.......          1
 number of shells.............          1
 SCF type: DFT=Becke_3_Parameter/HF+Slater+Becke88+VWN+LYP (B3LYP)
  
       i  u  d  i  g                   
       t  p  i  c  r                                 RMS    maximum
       e  d  i  u  i                       energy  density   DIIS  
       r  t  s  t  d       total energy    change  change    error 
  
etot    1  N  N  1  U   -5563.81286545212           5.7E-03  1.1E-01
etot    2  N  Y  1  U   -5468.08366672200 -9.6E+01  2.0E-02  1.9E-01
etot    3  N  Y  1  U   -5211.69394278072 -2.6E+02  1.8E-02  4.7E-01
etot    4  N  Y  1  U   -5544.86770872280  3.3E+02  1.3E-02  2.7E-01
etot    5  N  Y  1  U   -5443.71501690719 -1.0E+02  1.2E-02  2.0E-01
etot    6  N  Y  1  U   -5574.43968781235  1.3E+02  2.2E-03  8.0E-02
etot    7  N  Y  1  U   -5569.76773844567 -4.7E+00  1.8E-03  6.8E-02
etot    8  N  Y  1  U   -5576.85003194621  7.1E+00  5.4E-04  2.6E-02
etot    9  N  Y  1  U   -5577.14583477023  3.0E-01  2.2E-04  8.3E-03
etot   10  N  Y  1  U   -5577.18732335786  4.1E-02  1.0E-04  7.0E-03
etot   11  N  Y  1  U   -5577.20686594438  2.0E-02  3.5E-05  2.3E-03
etot   12  N  Y  1  U   -5577.20784431094  9.8E-04  2.6E-05  1.2E-03
etot   13  N  Y  1  U   -5577.20865870890  8.1E-04  1.1E-05  8.1E-04
etot   14  N  Y  1  U   -5577.20878820384  1.3E-04  5.3E-06  2.1E-04
etot   15  N  N  1  U   -5577.20882059105  3.2E-05  0.0E+00  0.0E+00
  
  
 Energy components, in hartrees:
   (A)  Nuclear repulsion............   20902.91205065361
   (E)  Total one-electron terms.....  -49340.23446443268
   (F)    Electron-nuclear...........  -54875.43858708171
   (H)    Kinetic....................    5535.20412264908
   (I)  Total two-electron terms.....   22860.11359318802
   (J)    Coulomb....................   23513.34717658329
   (K)    Exchange+Correlation.......    -653.23358339527
   (L)  Electronic energy............  -26480.12087124466  (E+I)
   (M)  -V/T.........................       2.00758864479  (-(A+F+I)/H)
   (N)  Total energy.................   -5577.20882059105  (A+L)
  
 SCFE: SCF energy: DFT(b3lyp)     -5577.20882059105 hartrees   iterations:  15
  
 
 HOMO energy:    -0.19816
 LUMO energy:    -0.09444
 
  Orbital energies (hartrees): 
   -89.12321   -89.08723   -77.23749   -66.10961   -66.10558   -24.71672
   -24.71601   -24.71343   -19.19569   -19.19338   -19.15756   -19.15622
   -19.11353   -19.11266   -19.11096   -14.39663   -14.38903   -14.36268
   -14.30869   -10.41939   -10.29304   -10.26590   -10.25703   -10.25440
   -10.25197   -10.24706   -10.24114   -10.22722   -10.22202   -10.22164
   -10.22001   -10.21890   -10.21176   -10.20909   -10.20472   -10.20434
   -10.20356   -10.20083   -10.19990   -10.19766   -10.19726   -10.19669
   -10.19587   -10.19304   -10.18903   -10.18900   -10.18869   -10.18809
   -10.18799   -10.18798   -10.18684   -10.18586   -10.18539   -10.18530
   -10.18511   -10.18495   -10.18493   -10.18379   -10.18376   -10.18361
   -10.18328   -10.18323   -10.18311   -10.18278   -10.18275   -10.18270
   -10.18231   -10.18166   -10.18089   -10.18070   -10.17993   -10.17977
   -10.17921   -10.17786   -10.17728   -10.17656   -10.17644   -10.17626
   -10.17550   -10.17394   -10.17126   -10.16935   -10.16891   -10.16886
   -10.16861   -10.16856   -10.16745   -10.16674   -10.16637   -10.16225
   -10.16149   -10.15422    -8.14922    -8.11200    -6.68228    -6.11447
    -6.11328    -6.11182    -6.07657    -6.07607    -6.07569    -5.25650
    -5.25233    -4.84699    -4.84604    -4.84360    -3.61554    -3.61520
    -3.61468    -3.61126    -3.61115    -3.61053    -1.29494    -1.20808
    -1.20577    -1.12473    -1.09986    -1.08035    -1.06052    -1.01578
    -1.00513    -0.97376    -0.97084    -0.96892    -0.95382    -0.87578
    -0.86925    -0.86653    -0.85614    -0.83983    -0.83841    -0.83497
    -0.83304    -0.82840    -0.82543    -0.82208    -0.81678    -0.80539
    -0.80350    -0.79953    -0.78503    -0.78329    -0.75820    -0.75203
    -0.75176    -0.74490    -0.74412    -0.73940    -0.73712    -0.73536
    -0.73496    -0.73323    -0.73036    -0.72910    -0.72878    -0.72846
    -0.72693    -0.72377    -0.72106    -0.71922    -0.71202    -0.70680
    -0.70223    -0.67511    -0.66112    -0.65462    -0.62964    -0.62810
    -0.61661    -0.61569    -0.61389    -0.61226    -0.60981    -0.60569
    -0.60215    -0.59583    -0.59487    -0.59378    -0.59146    -0.58973
    -0.58801    -0.58749    -0.58414    -0.58120    -0.58011    -0.57865
    -0.57579    -0.57359    -0.57349    -0.57126    -0.56883    -0.56856
    -0.56433    -0.56349    -0.55193    -0.54492    -0.54193    -0.52763
    -0.52750    -0.52273    -0.51836    -0.50769    -0.50411    -0.50232
    -0.50204    -0.49968    -0.49832    -0.49562    -0.49499    -0.49327
    -0.48287    -0.48236    -0.47735    -0.47191    -0.47011    -0.46786
    -0.46642    -0.46353    -0.46136    -0.45880    -0.45844    -0.45341
    -0.45091    -0.44816    -0.44610    -0.44503    -0.44459    -0.44286
    -0.44147    -0.44019    -0.43964    -0.43680    -0.43504    -0.43335
    -0.43309    -0.43235    -0.43079    -0.43062    -0.42860    -0.42654
    -0.42575    -0.42548    -0.42413    -0.42330    -0.42248    -0.42009
    -0.41955    -0.41901    -0.41700    -0.41642    -0.41609    -0.41473
    -0.41429    -0.41332    -0.41226    -0.40997    -0.40955    -0.40756
    -0.40547    -0.40117    -0.40004    -0.39778    -0.39314    -0.39174
    -0.38630    -0.38582    -0.38289    -0.38197    -0.38083    -0.37709
    -0.37650    -0.37050    -0.36958    -0.36589    -0.36447    -0.36182
    -0.35930    -0.35666    -0.35310    -0.35177    -0.35095    -0.34901
    -0.34765    -0.34434    -0.34319    -0.34121    -0.33947    -0.33818
    -0.33598    -0.33415    -0.33235    -0.33136    -0.32992    -0.32929
    -0.32777    -0.32455    -0.32370    -0.32249    -0.31849    -0.31821
    -0.31746    -0.31261    -0.30719    -0.30568    -0.30300    -0.29625
    -0.29475    -0.29254    -0.28862    -0.28630    -0.28440    -0.28323
    -0.28314    -0.28238    -0.28188    -0.27942    -0.27485    -0.27049
    -0.26856    -0.26549    -0.26457    -0.26147    -0.25504    -0.25035
    -0.24834    -0.24705    -0.24527    -0.24437    -0.24235    -0.24113
    -0.24035    -0.23434    -0.23267    -0.23185    -0.23037    -0.22917
    -0.22418    -0.22288    -0.21661    -0.19816    -0.09444    -0.05409
    -0.04000    -0.03534    -0.02734    -0.01929    -0.01521    -0.01425
    -0.01048    -0.00892
 
  Peak memory usage:    861 Mb
  
  end of program scf
   
 Time(scf)  user:    10984.0  user+sys:    11091.0  wallclock:    11745.0
  
  start of program ch
  
  gridpoints used for charge fit        16800
    out of a possible maximum of        19413
  
   Electrostatic potential fitting constrained to reproduce
     total charge:                yes
     dipole moment:               no 
     traceless quadrupole moment: no 
     traceless octapole moment:   no 
  
  Atomic charges from electrostatic potential: 
   
 Atom       C1           C2           C3           C4           C5      
 Charge   -0.03746     -0.06290     -0.19227      0.17266      0.07525
   
 Atom       C6           C7           C8           C9           C10     
 Charge   -0.21050     -0.25691     -0.07927      0.18164     -0.38009
   
 Atom       C11          O12          Si13         C14          C15     
 Charge   -0.00963     -0.27379     -0.20867      0.16047      0.49758
   
 Atom       C16          C17          C18          C19          C20     
 Charge    0.20679     -0.12579     -0.30401     -0.25289     -0.04748
   
 Atom       Si21         O22          C23          C24          P25     
 Charge   -0.26729     -0.36211     -0.17507     -0.07313      0.85093
   
 Atom       O26          N27          C28          C29          C30     
 Charge   -0.62014     -0.55221      0.18589      0.17622      0.32599
   
 Atom       C31          C32          C33          C34          C35     
 Charge    0.46763      0.21515      0.10662     -0.16329     -0.21367
   
 Atom       C36          C37          C38          C39          C40     
 Charge   -0.13757     -0.18631     -0.21525     -0.26847     -0.38408
   
 Atom       C41          C42          C43          C44          C45     
 Charge   -0.26194     -0.17727     -0.19079     -0.06720     -0.19204
   
 Atom       C46          C47          C48          C49          C50     
 Charge   -0.12181     -0.14409     -0.08009     -0.15688     -0.08243
   
 Atom       C51          C52          C53          C54          C55     
 Charge   -0.14425     -0.10756     -0.13980     -0.10311     -0.11629
   
 Atom       C56          C57          C58          C59          C60     
 Charge   -0.09658     -0.09888     -0.11907     -0.14546     -0.10238
   
 Atom       C61          C62          C63          C64          C65     
 Charge   -0.14432     -0.12781     -0.08434     -0.09310     -0.33204
   
 Atom       C66          C67          C68          C69          C70     
 Charge    0.48948     -0.20911     -0.05101     -0.16957     -0.22189
   
 Atom       N71          S72          O73          O74          C75     
 Charge   -0.32649      0.65830     -0.42062     -0.41562      0.50369
   
 Atom       C76          C77          C78          C79          N80     
 Charge   -0.34912      0.17333     -0.40142      0.35077     -0.55319
   
 Atom       N81          C82          C83          C84          C85     
 Charge    0.14576     -0.16665     -0.13237     -0.31061      0.11283
   
 Atom       H86          H87          H88          H89          H90     
 Charge    0.08531      0.13623      0.12822      0.14952      0.11508
   
 Atom       H91          H92          H93          H94          H95     
 Charge    0.11270      0.16035      0.14185      0.13009      0.11133
   
 Atom       H96          H97          H98          H99          H100    
 Charge    0.10032      0.12814      0.13048      0.12221      0.12129
   
 Atom       H101         H102         H103         H104         H105    
 Charge    0.15370      0.19199      0.15766      0.12371      0.08921
   
 Atom       H106         H107         H108         H109         H110    
 Charge    0.08646      0.12284      0.11921      0.12110      0.11021
   
 Atom       H111         H112         H113         H114         H115    
 Charge    0.12323      0.10710      0.12495      0.10596      0.09970
   
 Atom       H116         H117         H118         H119         H120    
 Charge    0.12524      0.10472      0.09092      0.11212      0.11590
   
 Atom       H121         H122         H123         H124         H125    
 Charge    0.12149      0.11852      0.11816      0.11534      0.10624
   
 Atom       H126         H127         H128         H129         H130    
 Charge    0.13364      0.15662      0.15898      0.08033      0.13310
   
 Atom       H131         H132         H133         H134         H135    
 Charge    0.15063      0.17406      0.09780      0.17466      0.05080
   
 Atom       H136         H137         H138         H139         H140    
 Charge    0.19848      0.18514      0.15813      0.19666      0.11232
   
 Atom       S141         O142         C143         O144         F145    
 Charge    0.66911     -0.41538      0.45050     -0.44769     -0.10458
   
 Atom       F146         F147         H148    
 Charge   -0.14590     -0.15210      0.30636
  
  sum of atomic charges:     0.000000
   
 RMS Error   8.96E-04 hartrees
 
  Peak memory usage:    589 Mb
  
  end of program ch
   
 Time(ch)  user:       18.0  user+sys:       19.0  wallclock:       20.1
  
  start of program post
  
  Writing input files for PBF
  Peak memory usage:    536 Mb
  
  end of program post
   
 Time(post)  user:        0.0  user+sys:        0.0  wallclock:        0.2

  start of program pbf

Pbf Version 4.00

Rebuild_nml:  Small surface normal=2.864871e-09 SurfGridPt=[0.825 0.637 4.768]
Molecular surface area:      839.28502   [A2]
Reaction field energy:       -15.26766   [kT]
  Peak memory usage: 560 Mb

  end of program pbf

 Time(pbf)  user:       24.9  user+sys:       25.0  wallclock:       25.2
  
  start of program solv
  
   number of surface charges from PBF   13514
   sum of surface charges     -0.00051
   
  nuclear repulsion energy.......   20902.912050654 hartrees
  Peak memory usage:    701 Mb
  
  end of program solv
   
 Time(solv)  user:       37.0  user+sys:       37.0  wallclock:       38.7
  
  start of program scf
  
  
       i  u  d  i  g                   
       t  p  i  c  r                                 RMS    maximum
       e  d  i  u  i                       energy  density   DIIS  
       r  t  s  t  d       total energy    change  change    error 
  
etot    1  N  N  1  U   -5577.24143343730           5.7E-05  1.0E-03
etot    2  N  Y  1  U   -5577.24173729702  3.0E-04  2.4E-05  1.5E-03
etot    3  N  Y  1  U   -5577.24226829153  5.3E-04  8.6E-06  6.2E-04
etot    4  N  Y  1  U   -5577.24237562833  1.1E-04  3.8E-06  1.7E-04
etot    5  N  N  1  U   -5577.24239283529  1.7E-05  0.0E+00  0.0E+00
  
  
 Energy components, in hartrees:
   (A)  Total zero-electron terms....   20905.61800949962
   (B)    Nuclear-nuclear............   20902.91205065361
   (C)    Nuclear-solvent............       2.70595884601
   (E)  Total one-electron terms.....  -49344.42847239252
   (F)    Electron-nuclear...........  -54876.93830210899
   (G)    Electron-solvent...........      -2.74049097605
   (H)    Kinetic....................    5535.25032069252
   (I)  Total two-electron terms.....   22861.56807005760
   (J)    Coulomb....................   23514.81872292890
   (K)    Exchange+Correlation.......    -653.25065287129
   (L)  Electronic energy............  -26482.86040233492  (E+I)
   (N)  Total quantum mech. energy...   -5577.24239283529  (A+L)
   (O)  Gas phase energy.............   -5577.20882059105
   (P)  Solution phase energy........   -5577.22512677028  (Q+R+S)
   (Q)    Total solute energy........   -5577.20786070526  (N-C-G)
   (R)    Total solvent energy.......      -0.01726606502  (C/2+G/2)
   (S)    Solute cavity energy.......       0.00000000000
   (U)  Reorganization energy........       0.00095988579  (Q-O)
   (V)  Solvation energy.............      -0.01630617923  (P-O)
  
 SCFE:  Solution phase energy: DFT(b3lyp)      -5577.22512677028 hartrees
        SCF iterations:   5
  
 
 HOMO energy:    -0.20163
 LUMO energy:    -0.09162
 
  Orbital energies (hartrees): 
   -89.12647   -89.09241   -77.23997   -66.11254   -66.10906   -24.72223
   -24.72217   -24.71975   -19.19845   -19.19671   -19.16066   -19.15907
   -19.11982   -19.11872   -19.11223   -14.39283   -14.38919   -14.36003
   -14.31204   -10.42579   -10.29123   -10.26462   -10.25745   -10.25574
   -10.25175   -10.24345   -10.23822   -10.22311   -10.21884   -10.21817
   -10.21762   -10.21438   -10.20680   -10.20615   -10.20597   -10.20295
   -10.20066   -10.20042   -10.20027   -10.19969   -10.19953   -10.19892
   -10.19525   -10.19365   -10.19161   -10.19101   -10.19093   -10.19009
   -10.18966   -10.18864   -10.18790   -10.18698   -10.18688   -10.18672
   -10.18661   -10.18646   -10.18634   -10.18627   -10.18605   -10.18598
   -10.18590   -10.18580   -10.18540   -10.18538   -10.18528   -10.18528
   -10.18514   -10.18451   -10.18366   -10.18360   -10.18285   -10.18154
   -10.18153   -10.18114   -10.18020   -10.18016   -10.18006   -10.18004
   -10.17925   -10.17773   -10.17370   -10.17327   -10.17244   -10.17135
   -10.17129   -10.17075   -10.17053   -10.16992   -10.16834   -10.16637
   -10.16516   -10.15822    -8.15236    -8.11718    -6.68479    -6.11758
    -6.11653    -6.11490    -6.08174    -6.08126    -6.08090    -5.25939
    -5.25579    -4.84951    -4.84855    -4.84610    -3.61842    -3.61811
    -3.61757    -3.61471    -3.61461    -3.61399    -1.30124    -1.21410
    -1.21233    -1.12804    -1.10295    -1.08576    -1.06357    -1.01953
    -1.00158    -0.97675    -0.97163    -0.97038    -0.95387    -0.87886
    -0.87027    -0.86666    -0.85928    -0.84117    -0.84091    -0.83716
    -0.83646    -0.83235    -0.82548    -0.82201    -0.81944    -0.80671
    -0.80122    -0.79752    -0.78805    -0.78088    -0.75560    -0.75467
    -0.74832    -0.74696    -0.74634    -0.74019    -0.73998    -0.73773
    -0.73697    -0.73673    -0.73296    -0.73267    -0.73133    -0.73064
    -0.72986    -0.72725    -0.72436    -0.72235    -0.71238    -0.71093
    -0.70530    -0.67339    -0.66458    -0.65122    -0.63285    -0.62686
    -0.61899    -0.61852    -0.61345    -0.61160    -0.60863    -0.60452
    -0.60383    -0.59718    -0.59521    -0.59389    -0.59201    -0.59080
    -0.59054    -0.58947    -0.58719    -0.58440    -0.58216    -0.58132
    -0.57797    -0.57743    -0.57629    -0.57374    -0.57232    -0.57121
    -0.56723    -0.56210    -0.55483    -0.54653    -0.54091    -0.52987
    -0.52750    -0.52489    -0.52067    -0.50609    -0.50592    -0.50453
    -0.50353    -0.50081    -0.49843    -0.49668    -0.49629    -0.49366
    -0.48678    -0.48487    -0.47857    -0.47276    -0.46928    -0.46649
    -0.46561    -0.46465    -0.46166    -0.46062    -0.45866    -0.45530
    -0.45146    -0.45070    -0.44879    -0.44810    -0.44669    -0.44599
    -0.44358    -0.44279    -0.43928    -0.43740    -0.43664    -0.43556
    -0.43508    -0.43415    -0.43324    -0.43166    -0.42995    -0.42903
    -0.42807    -0.42750    -0.42580    -0.42535    -0.42221    -0.42180
    -0.42049    -0.41920    -0.41761    -0.41700    -0.41675    -0.41569
    -0.41492    -0.41355    -0.41288    -0.41266    -0.41175    -0.41036
    -0.40866    -0.40387    -0.40266    -0.39563    -0.39443    -0.39331
    -0.39182    -0.38791    -0.38482    -0.38411    -0.38320    -0.37966
    -0.37545    -0.37264    -0.37083    -0.36797    -0.36462    -0.36299
    -0.35971    -0.35839    -0.35657    -0.35363    -0.35318    -0.35197
    -0.34966    -0.34718    -0.34505    -0.34448    -0.34196    -0.34033
    -0.33819    -0.33486    -0.33466    -0.33458    -0.33214    -0.33114
    -0.33074    -0.32772    -0.32676    -0.32561    -0.32133    -0.32121
    -0.32028    -0.31593    -0.31030    -0.30559    -0.30378    -0.29929
    -0.29771    -0.29499    -0.29045    -0.28836    -0.28602    -0.28574
    -0.28453    -0.28272    -0.28259    -0.27997    -0.27767    -0.27510
    -0.27135    -0.26846    -0.26363    -0.26006    -0.25891    -0.25243
    -0.25134    -0.24875    -0.24779    -0.24615    -0.24531    -0.24409
    -0.24018    -0.23850    -0.23556    -0.23430    -0.23390    -0.23297
    -0.22788    -0.22594    -0.22011    -0.20163    -0.09162    -0.05195
    -0.04337    -0.03247    -0.03015    -0.01826    -0.01718    -0.01319
    -0.01223    -0.01207
 
  Peak memory usage:    859 Mb
  
  end of program scf
   
 Time(scf)  user:     2982.0  user+sys:     3012.0  wallclock:     3174.1
  
  start of program sole
  
    SCRF                   solvation energy
  iteration          Hartrees            kcal/mol
     0               0.0000000            0.0000
     1              -0.0163062          -10.2323
  
  solvation energy not yet converged... 
  
  Peak memory usage:    635 Mb
  
  end of program sole
   
 Time(sole)  user:        0.0  user+sys:        0.0  wallclock:        0.2
  
  start of program ch
  
  gridpoints used for charge fit        16800
    out of a possible maximum of        16800
  
   Electrostatic potential fitting constrained to reproduce
     total charge:                yes
     dipole moment:               no 
     traceless quadrupole moment: no 
     traceless octapole moment:   no 
  
  Atomic charges from electrostatic potential: 
   
 Atom       C1           C2           C3           C4           C5      
 Charge   -0.03874     -0.06037     -0.19946      0.17348      0.07220
   
 Atom       C6           C7           C8           C9           C10     
 Charge   -0.22026     -0.26691     -0.08223      0.17839     -0.38298
   
 Atom       C11          O12          Si13         C14          C15     
 Charge    0.00350     -0.26995     -0.23296      0.16342      0.49960
   
 Atom       C16          C17          C18          C19          C20     
 Charge    0.20455     -0.13001     -0.30997     -0.26125     -0.03819
   
 Atom       Si21         O22          C23          C24          P25     
 Charge   -0.28274     -0.35434     -0.18045     -0.07963      0.83963
   
 Atom       O26          N27          C28          C29          C30     
 Charge   -0.61511     -0.53884      0.19304      0.18306      0.33309
   
 Atom       C31          C32          C33          C34          C35     
 Charge    0.47866      0.21829      0.10623     -0.16588     -0.22178
   
 Atom       C36          C37          C38          C39          C40     
 Charge   -0.14058     -0.19162     -0.21126     -0.27081     -0.39452
   
 Atom       C41          C42          C43          C44          C45     
 Charge   -0.25568     -0.17826     -0.18979     -0.06480     -0.19895
   
 Atom       C46          C47          C48          C49          C50     
 Charge   -0.12996     -0.15096     -0.08449     -0.16361     -0.08812
   
 Atom       C51          C52          C53          C54          C55     
 Charge   -0.15193     -0.11640     -0.14519     -0.11147     -0.12372
   
 Atom       C56          C57          C58          C59          C60     
 Charge   -0.09759     -0.11484     -0.12732     -0.15184     -0.11327
   
 Atom       C61          C62          C63          C64          C65     
 Charge   -0.15262     -0.13617     -0.08917     -0.10351     -0.33244
   
 Atom       C66          C67          C68          C69          C70     
 Charge    0.49785     -0.20542     -0.06813     -0.16848     -0.23335
   
 Atom       N71          S72          O73          O74          C75     
 Charge   -0.31568      0.67039     -0.44258     -0.43120      0.50818
   
 Atom       C76          C77          C78          C79          N80     
 Charge   -0.35371      0.17839     -0.40435      0.36020     -0.57715
   
 Atom       N81          C82          C83          C84          C85     
 Charge    0.15235     -0.16198     -0.13582     -0.31610      0.11117
   
 Atom       H86          H87          H88          H89          H90     
 Charge    0.08702      0.14336      0.13481      0.15585      0.12212
   
 Atom       H91          H92          H93          H94          H95     
 Charge    0.11488      0.16401      0.14814      0.13652      0.11826
   
 Atom       H96          H97          H98          H99          H100    
 Charge    0.10070      0.13252      0.13247      0.12581      0.12417
   
 Atom       H101         H102         H103         H104         H105    
 Charge    0.15267      0.19913      0.15627      0.12663      0.08753
   
 Atom       H106         H107         H108         H109         H110    
 Charge    0.08530      0.12567      0.12677      0.12818      0.11664
   
 Atom       H111         H112         H113         H114         H115    
 Charge    0.12737      0.11319      0.13150      0.11365      0.10535
   
 Atom       H116         H117         H118         H119         H120    
 Charge    0.12915      0.10749      0.09431      0.11899      0.12279
   
 Atom       H121         H122         H123         H124         H125    
 Charge    0.12845      0.12612      0.12604      0.12358      0.11343
   
 Atom       H126         H127         H128         H129         H130    
 Charge    0.14193      0.16234      0.15388      0.09028      0.13792
   
 Atom       H131         H132         H133         H134         H135    
 Charge    0.15559      0.17337      0.10590      0.18371      0.05753
   
 Atom       H136         H137         H138         H139         H140    
 Charge    0.19219      0.19274      0.16664      0.20597      0.11360
   
 Atom       S141         O142         C143         O144         F145    
 Charge    0.66550     -0.41197      0.45111     -0.46159     -0.10067
   
 Atom       F146         F147         H148    
 Charge   -0.14705     -0.15528      0.30067
  
  sum of atomic charges:     0.000000
   
 RMS Error   9.04E-04 hartrees
 
  Peak memory usage:    588 Mb
  
  end of program ch
   
 Time(ch)  user:       19.0  user+sys:       20.0  wallclock:       22.9
  
  start of program post
  
  Writing input files for PBF
  Peak memory usage:    536 Mb
  
  end of program post
   
 Time(post)  user:        0.0  user+sys:        0.0  wallclock:        0.2

  start of program pbf

Pbf Version 4.00

Rebuild_nml:  Small surface normal=2.864871e-09 SurfGridPt=[0.825 0.637 4.768]
Molecular surface area:      839.28502   [A2]
Reaction field energy:       -17.49438   [kT]
  Peak memory usage: 560 Mb

  end of program pbf

 Time(pbf)  user:       25.9  user+sys:       25.9  wallclock:       26.6
  
  start of program solv
  
   number of surface charges from PBF   13514
   sum of surface charges     -0.00053
   
  nuclear repulsion energy.......   20902.912050654 hartrees
  Peak memory usage:    701 Mb
  
  end of program solv
   
 Time(solv)  user:       37.0  user+sys:       37.0  wallclock:       38.2
  
  start of program scf
  
  
       i  u  d  i  g                   
       t  p  i  c  r                                 RMS    maximum
       e  d  i  u  i                       energy  density   DIIS  
       r  t  s  t  d       total energy    change  change    error 
  
etot    1  N  N  1  U   -5577.24478178517           7.8E-06  1.2E-04
etot    2  N  N  1  U   -5577.24475790593 -2.4E-05  0.0E+00  0.0E+00
  
  
 Energy components, in hartrees:
   (A)  Total zero-electron terms....   20905.90492572006
   (B)    Nuclear-nuclear............   20902.91205065361
   (C)    Nuclear-solvent............       2.99287506645
   (E)  Total one-electron terms.....  -49345.27579117670
   (F)    Electron-nuclear...........  -54877.51764993008
   (G)    Electron-solvent...........      -3.03014599186
   (H)    Kinetic....................    5535.27200474525
   (I)  Total two-electron terms.....   22862.12610755071
   (J)    Coulomb....................   23515.37997824818
   (K)    Exchange+Correlation.......    -653.25387069747
   (L)  Electronic energy............  -26483.14968362599  (E+I)
   (N)  Total quantum mech. energy...   -5577.24475790593  (A+L)
   (O)  Gas phase energy.............   -5577.20882059105
   (P)  Solution phase energy........   -5577.22612244322  (Q+R+S)
   (Q)    Total solute energy........   -5577.20748698052  (N-C-G)
   (R)    Total solvent energy.......      -0.01863546271  (C/2+G/2)
   (S)    Solute cavity energy.......       0.00000000000
   (U)  Reorganization energy........       0.00133361053  (Q-O)
   (V)  Solvation energy.............      -0.01730185218  (P-O)
  
 SCFE:  Solution phase energy: DFT(b3lyp)      -5577.22612244322 hartrees
        SCF iterations:   2
  
 
 HOMO energy:    -0.23422
 LUMO energy:    -0.09024
 
  Orbital energies (hartrees): 
   -47.51549   -44.35246   -44.19584   -39.67074   -36.06927   -35.07487
   -34.56620   -33.18306   -32.84868   -27.93364   -25.92082   -24.04164
   -23.60110   -23.58543   -23.32492   -21.19809   -19.69825   -18.26295
   -16.43072   -15.83237   -14.95415   -14.44490   -14.11752   -14.01423
   -13.00484   -12.93137   -12.77102   -12.36994   -12.25067   -12.19428
   -11.96868   -11.76427   -11.74385   -11.64657   -11.59679   -11.57452
   -11.28009   -11.26730   -11.05141   -10.92991   -10.91866   -10.82881
   -10.72736   -10.65860   -10.57484   -10.57094   -10.51642   -10.50159
   -10.49766   -10.48698   -10.47781   -10.39438   -10.34589   -10.31518
   -10.29219   -10.24528   -10.22982   -10.21395   -10.20527   -10.19315
   -10.17572   -10.17277   -10.17215   -10.17036   -10.15991   -10.13352
   -10.13271   -10.12761   -10.11283   -10.11258   -10.09559   -10.08714
   -10.03584   -10.01425    -9.98902    -9.97512    -9.92475    -9.89170
    -9.88174    -9.86259    -9.81203    -9.79507    -9.77933    -9.77893
    -9.73815    -9.70713    -9.69825    -9.64722    -9.63241    -9.47950
    -9.42640    -9.36804    -9.32494    -9.26365    -9.26247    -9.10589
    -8.95130    -8.45991    -8.29707    -7.79148    -7.28606    -7.22416
    -7.03476    -6.85736    -6.74077    -6.47684    -5.72881    -5.56751
    -5.29869    -4.49765    -4.31207    -3.71166    -1.36676    -1.20451
    -1.18167    -1.04845    -0.99832    -0.97515    -0.93727    -0.89513
    -0.86978    -0.86148    -0.86063    -0.84076    -0.83147    -0.82391
    -0.81611    -0.80566    -0.80130    -0.79823    -0.78934    -0.78457
    -0.76590    -0.76161    -0.75836    -0.75583    -0.75415    -0.74243
    -0.72034    -0.71533    -0.71472    -0.70854    -0.70843    -0.70710
    -0.69697    -0.69639    -0.69590    -0.69065    -0.69046    -0.68814
    -0.68516    -0.67919    -0.67715    -0.67547    -0.66132    -0.66117
    -0.66081    -0.65698    -0.65338    -0.65258    -0.65253    -0.64759
    -0.63950    -0.63871    -0.63855    -0.63565    -0.63377    -0.62895
    -0.62815    -0.62684    -0.60236    -0.59752    -0.59393    -0.59302
    -0.59230    -0.59175    -0.58548    -0.58414    -0.57855    -0.57194
    -0.56872    -0.56765    -0.56742    -0.56714    -0.56574    -0.56541
    -0.56497    -0.55700    -0.55572    -0.55361    -0.55348    -0.55313
    -0.55055    -0.54905    -0.53721    -0.53348    -0.53200    -0.53188
    -0.53104    -0.52890    -0.52878    -0.52736    -0.52045    -0.51973
    -0.51395    -0.51366    -0.51220    -0.51086    -0.50577    -0.50516
    -0.50480    -0.50478    -0.50352    -0.50285    -0.50279    -0.49690
    -0.49637    -0.49502    -0.49211    -0.48914    -0.48791    -0.48663
    -0.48558    -0.48413    -0.48295    -0.47821    -0.47652    -0.47549
    -0.47222    -0.47208    -0.47105    -0.46920    -0.46867    -0.46624
    -0.46537    -0.46387    -0.46294    -0.46225    -0.46221    -0.46190
    -0.46137    -0.46124    -0.46115    -0.46010    -0.45775    -0.45774
    -0.45758    -0.45633    -0.44941    -0.44906    -0.44640    -0.44626
    -0.44589    -0.44583    -0.44270    -0.43655    -0.43369    -0.43133
    -0.43009    -0.42935    -0.42767    -0.42590    -0.42575    -0.42456
    -0.42441    -0.42409    -0.42331    -0.42237    -0.42117    -0.41728
    -0.41541    -0.41528    -0.41310    -0.41291    -0.41175    -0.40897
    -0.40448    -0.40104    -0.40098    -0.40054    -0.39843    -0.39563
    -0.39391    -0.39367    -0.39299    -0.39226    -0.39170    -0.39126
    -0.38998    -0.38945    -0.38847    -0.38615    -0.38587    -0.37603
    -0.37497    -0.37467    -0.37291    -0.37274    -0.37120    -0.37108
    -0.37096    -0.37042    -0.36887    -0.36574    -0.36254    -0.35889
    -0.35876    -0.35627    -0.35467    -0.35134    -0.34981    -0.34781
    -0.33901    -0.33795    -0.33362    -0.33167    -0.33057    -0.32678
    -0.32364    -0.31872    -0.31727    -0.30381    -0.29784    -0.29757
    -0.29407    -0.29092    -0.28569    -0.28364    -0.28350    -0.27859
    -0.26966    -0.26613    -0.26406    -0.25695    -0.25586    -0.25461
    -0.25438    -0.25209    -0.23818    -0.23422    -0.09024    -0.05074
    -0.04336    -0.03152    -0.03017    -0.01813    -0.01650    -0.01298
    -0.01220    -0.01148
 
  Peak memory usage:    859 Mb
  
  end of program scf
   
 Time(scf)  user:      779.0  user+sys:      788.0  wallclock:      829.9
  
  start of program sole
  
    SCRF                   solvation energy
  iteration          Hartrees            kcal/mol
     0               0.0000000            0.0000
     1              -0.0163062          -10.2323
     2              -0.0173019          -10.8571
  
  solvation energy not yet converged... 
  
  Peak memory usage:    635 Mb
  
  end of program sole
   
 Time(sole)  user:        0.0  user+sys:        0.0  wallclock:        0.2
  
  start of program ch
  
  gridpoints used for charge fit        16800
    out of a possible maximum of        16800
  
   Electrostatic potential fitting constrained to reproduce
     total charge:                yes
     dipole moment:               no 
     traceless quadrupole moment: no 
     traceless octapole moment:   no 
  
  Atomic charges from electrostatic potential: 
   
 Atom       C1           C2           C3           C4           C5      
 Charge   -0.03958     -0.05966     -0.19954      0.17398      0.07192
   
 Atom       C6           C7           C8           C9           C10     
 Charge   -0.22058     -0.26744     -0.08170      0.17651     -0.38364
   
 Atom       C11          O12          Si13         C14          C15     
 Charge    0.00413     -0.26958     -0.23528      0.16373      0.49850
   
 Atom       C16          C17          C18          C19          C20     
 Charge    0.20476     -0.13068     -0.30932     -0.26161     -0.03859
   
 Atom       Si21         O22          C23          C24          P25     
 Charge   -0.28222     -0.35302     -0.18013     -0.07983      0.83781
   
 Atom       O26          N27          C28          C29          C30     
 Charge   -0.61368     -0.53792      0.19302      0.18178      0.33178
   
 Atom       C31          C32          C33          C34          C35     
 Charge    0.47699      0.21699      0.10536     -0.16595     -0.22298
   
 Atom       C36          C37          C38          C39          C40     
 Charge   -0.13990     -0.19225     -0.20938     -0.27131     -0.39418
   
 Atom       C41          C42          C43          C44          C45     
 Charge   -0.25358     -0.17759     -0.19014     -0.06516     -0.20046
   
 Atom       C46          C47          C48          C49          C50     
 Charge   -0.13031     -0.15095     -0.08448     -0.16384     -0.08811
   
 Atom       C51          C52          C53          C54          C55     
 Charge   -0.15180     -0.11618     -0.14537     -0.11296     -0.12545
   
 Atom       C56          C57          C58          C59          C60     
 Charge   -0.09626     -0.11616     -0.12785     -0.15164     -0.11384
   
 Atom       C61          C62          C63          C64          C65     
 Charge   -0.15326     -0.13595     -0.08886     -0.10321     -0.33214
   
 Atom       C66          C67          C68          C69          C70     
 Charge    0.49388     -0.20559     -0.06765     -0.16519     -0.23834
   
 Atom       N71          S72          O73          O74          C75     
 Charge   -0.31528      0.66385     -0.44221     -0.42903      0.50541
   
 Atom       C76          C77          C78          C79          N80     
 Charge   -0.35396      0.18021     -0.40207      0.36044     -0.57983
   
 Atom       N81          C82          C83          C84          C85     
 Charge    0.15205     -0.15539     -0.13212     -0.31513      0.10960
   
 Atom       H86          H87          H88          H89          H90     
 Charge    0.08738      0.14403      0.13523      0.15699      0.12284
   
 Atom       H91          H92          H93          H94          H95     
 Charge    0.11476      0.16382      0.14845      0.13702      0.11888
   
 Atom       H96          H97          H98          H99          H100    
 Charge    0.10050      0.13275      0.13214      0.12580      0.12453
   
 Atom       H101         H102         H103         H104         H105    
 Charge    0.15225      0.19854      0.15540      0.12660      0.08722
   
 Atom       H106         H107         H108         H109         H110    
 Charge    0.08509      0.12583      0.12751      0.12890      0.11729
   
 Atom       H111         H112         H113         H114         H115    
 Charge    0.12742      0.11370      0.13198      0.11501      0.10616
   
 Atom       H116         H117         H118         H119         H120    
 Charge    0.12890      0.10740      0.09478      0.11960      0.12349
   
 Atom       H121         H122         H123         H124         H125    
 Charge    0.12906      0.12672      0.12694      0.12456      0.11415
   
 Atom       H126         H127         H128         H129         H130    
 Charge    0.14262      0.16280      0.15316      0.09126      0.13784
   
 Atom       H131         H132         H133         H134         H135    
 Charge    0.15638      0.17295      0.10677      0.18504      0.05865
   
 Atom       H136         H137         H138         H139         H140    
 Charge    0.19072      0.19238      0.16701      0.20623      0.11306
   
 Atom       S141         O142         C143         O144         F145    
 Charge    0.66464     -0.41152      0.45090     -0.46174     -0.10055
   
 Atom       F146         F147         H148    
 Charge   -0.14713     -0.15537      0.29884
  
  sum of atomic charges:     0.000000
   
 RMS Error   9.04E-04 hartrees
 
  Peak memory usage:    588 Mb
  
  end of program ch
   
 Time(ch)  user:       19.0  user+sys:       19.0  wallclock:       22.9
  
  start of program post
  
  Writing input files for PBF
  Peak memory usage:    536 Mb
  
  end of program post
   
 Time(post)  user:        0.0  user+sys:        0.0  wallclock:        0.2

  start of program pbf

Pbf Version 4.00

Rebuild_nml:  Small surface normal=2.864871e-09 SurfGridPt=[0.825 0.637 4.768]
Molecular surface area:      839.28502   [A2]
Reaction field energy:       -17.87137   [kT]
  Peak memory usage: 560 Mb

  end of program pbf

 Time(pbf)  user:       25.8  user+sys:       25.9  wallclock:       26.7
  
  start of program solv
  
   number of surface charges from PBF   13514
   sum of surface charges     -0.00054
   
  nuclear repulsion energy.......   20902.912050654 hartrees
  Peak memory usage:    701 Mb
  
  end of program solv
   
 Time(solv)  user:       37.0  user+sys:       37.0  wallclock:       38.3
  
  start of program scf
  
  
       i  u  d  i  g                   
       t  p  i  c  r                                 RMS    maximum
       e  d  i  u  i                       energy  density   DIIS  
       r  t  s  t  d       total energy    change  change    error 
  
etot    1  N  N  1  U   -5577.24513794761           1.3E-05  2.4E-04
etot    2  N  Y  1  U   -5577.24496160145 -1.8E-04  9.4E-06  6.0E-04
etot    3  N  Y  1  U   -5577.24517120303  2.1E-04  5.1E-07  1.5E-05
etot    4  N  N  1  U   -5577.24517135186  1.5E-07  0.0E+00  0.0E+00
  
  
 Energy components, in hartrees:
   (A)  Total zero-electron terms....   20905.97371753475
   (B)    Nuclear-nuclear............   20902.91205065361
   (C)    Nuclear-solvent............       3.06166688114
   (E)  Total one-electron terms.....  -49345.05602285280
   (F)    Electron-nuclear...........  -54877.21320482763
   (G)    Electron-solvent...........      -3.09922557110
   (H)    Kinetic....................    5535.25640754593
   (I)  Total two-electron terms.....   22861.83713396619
   (J)    Coulomb....................   23515.08920856661
   (K)    Exchange+Correlation.......    -653.25207460042
   (L)  Electronic energy............  -26483.21888888661  (E+I)
   (N)  Total quantum mech. energy...   -5577.24517135186  (A+L)
   (O)  Gas phase energy.............   -5577.20882059105
   (P)  Solution phase energy........   -5577.22639200688  (Q+R+S)
   (Q)    Total solute energy........   -5577.20761266190  (N-C-G)
   (R)    Total solvent energy.......      -0.01877934498  (C/2+G/2)
   (S)    Solute cavity energy.......       0.00000000000
   (U)  Reorganization energy........       0.00120792914  (Q-O)
   (V)  Solvation energy.............      -0.01757141584  (P-O)
  
 SCFE:  Solution phase energy: DFT(b3lyp)      -5577.22639200688 hartrees
        SCF iterations:   4
  
 
 HOMO energy:    -0.20198
 LUMO energy:    -0.09102
 
  Orbital energies (hartrees): 
   -89.12625   -89.09283   -77.23997   -66.11268   -66.10917   -24.72308
   -24.72272   -24.72050   -19.19856   -19.19664   -19.16201   -19.16064
   -19.12083   -19.11900   -19.11206   -14.39237   -14.38788   -14.35987
   -14.31195   -10.42640   -10.29000   -10.26444   -10.25735   -10.25578
   -10.25158   -10.24273   -10.23769   -10.22262   -10.21893   -10.21703
   -10.21678   -10.21368   -10.20710   -10.20548   -10.20524   -10.20304
   -10.20090   -10.20050   -10.19994   -10.19992   -10.19990   -10.19845
   -10.19550   -10.19359   -10.19228   -10.19124   -10.19105   -10.19014
   -10.18967   -10.18847   -10.18809   -10.18742   -10.18687   -10.18684
   -10.18680   -10.18677   -10.18674   -10.18622   -10.18613   -10.18605
   -10.18599   -10.18586   -10.18577   -10.18576   -10.18572   -10.18552
   -10.18543   -10.18450   -10.18401   -10.18394   -10.18324   -10.18187
   -10.18152   -10.18148   -10.18087   -10.18066   -10.18064   -10.18034
   -10.17984   -10.17841   -10.17395   -10.17340   -10.17240   -10.17159
   -10.17132   -10.17126   -10.17058   -10.17044   -10.16841   -10.16665
   -10.16547   -10.15841    -8.15223    -8.11761    -6.68479    -6.11743
    -6.11640    -6.11475    -6.08216    -6.08168    -6.08132    -5.25954
    -5.25591    -4.84951    -4.84856    -4.84610    -3.61857    -3.61827
    -3.61772    -3.61483    -3.61473    -3.61412    -1.30194    -1.21476
    -1.21310    -1.12856    -1.10304    -1.08622    -1.06361    -1.02032
    -1.00114    -0.97729    -0.97139    -0.97028    -0.95316    -0.87906
    -0.87045    -0.86614    -0.85965    -0.84144    -0.84093    -0.83734
    -0.83675    -0.83291    -0.82573    -0.82164    -0.81961    -0.80702
    -0.80069    -0.79719    -0.78835    -0.78034    -0.75511    -0.75497
    -0.74819    -0.74685    -0.74648    -0.74032    -0.74013    -0.73792
    -0.73718    -0.73709    -0.73334    -0.73301    -0.73151    -0.73083
    -0.73014    -0.72769    -0.72466    -0.72255    -0.71295    -0.71057
    -0.70561    -0.67294    -0.66482    -0.65086    -0.63317    -0.62646
    -0.61920    -0.61876    -0.61364    -0.61116    -0.60822    -0.60471
    -0.60332    -0.59743    -0.59531    -0.59407    -0.59217    -0.59098
    -0.59051    -0.58929    -0.58748    -0.58484    -0.58235    -0.58157
    -0.57850    -0.57810    -0.57652    -0.57427    -0.57225    -0.57110
    -0.56753    -0.56184    -0.55494    -0.54665    -0.54043    -0.53011
    -0.52754    -0.52508    -0.52087    -0.50625    -0.50576    -0.50474
    -0.50362    -0.50116    -0.49873    -0.49651    -0.49622    -0.49346
    -0.48715    -0.48513    -0.47861    -0.47287    -0.46895    -0.46619
    -0.46580    -0.46468    -0.46182    -0.46089    -0.45838    -0.45551
    -0.45206    -0.45106    -0.44879    -0.44811    -0.44682    -0.44616
    -0.44389    -0.44306    -0.43952    -0.43740    -0.43653    -0.43568
    -0.43526    -0.43428    -0.43353    -0.43193    -0.42993    -0.42899
    -0.42834    -0.42794    -0.42612    -0.42556    -0.42200    -0.42195
    -0.42067    -0.41906    -0.41764    -0.41708    -0.41699    -0.41594
    -0.41503    -0.41390    -0.41319    -0.41301    -0.41126    -0.40982
    -0.40910    -0.40413    -0.40291    -0.39579    -0.39432    -0.39331
    -0.39236    -0.38802    -0.38503    -0.38429    -0.38338    -0.37997
    -0.37513    -0.37293    -0.37087    -0.36816    -0.36486    -0.36267
    -0.35977    -0.35841    -0.35690    -0.35385    -0.35320    -0.35220
    -0.34979    -0.34764    -0.34528    -0.34450    -0.34216    -0.34050
    -0.33841    -0.33557    -0.33489    -0.33461    -0.33241    -0.33139
    -0.33107    -0.32823    -0.32708    -0.32607    -0.32163    -0.32154
    -0.32045    -0.31637    -0.31057    -0.30568    -0.30359    -0.29947
    -0.29793    -0.29513    -0.29076    -0.28854    -0.28624    -0.28587
    -0.28459    -0.28282    -0.28266    -0.27969    -0.27779    -0.27544
    -0.27156    -0.26865    -0.26318    -0.25998    -0.25888    -0.25255
    -0.25167    -0.24899    -0.24783    -0.24625    -0.24570    -0.24425
    -0.24002    -0.23893    -0.23574    -0.23449    -0.23421    -0.23333
    -0.22819    -0.22616    -0.22037    -0.20198    -0.09102    -0.05168
    -0.04370    -0.03216    -0.03037    -0.01845    -0.01682    -0.01328
    -0.01254    -0.01173
 
  Peak memory usage:    859 Mb
  
  end of program scf
   
 Time(scf)  user:     2290.0  user+sys:     2317.0  wallclock:     3502.2
  
  start of program sole
  
    SCRF                   solvation energy
  iteration          Hartrees            kcal/mol
     0               0.0000000            0.0000
     1              -0.0163062          -10.2323
     2              -0.0173019          -10.8571
     3              -0.0175714          -11.0262
  
  solvation energy not yet converged... 
  
  Peak memory usage:    635 Mb
  
  end of program sole
   
 Time(sole)  user:        0.0  user+sys:        0.0  wallclock:        0.7
  
  start of program ch
  
  gridpoints used for charge fit        16800
    out of a possible maximum of        16800
  
   Electrostatic potential fitting constrained to reproduce
     total charge:                yes
     dipole moment:               no 
     traceless quadrupole moment: no 
     traceless octapole moment:   no 
  
  Atomic charges from electrostatic potential: 
   
 Atom       C1           C2           C3           C4           C5      
 Charge   -0.03905     -0.05990     -0.19976      0.17363      0.07179
   
 Atom       C6           C7           C8           C9           C10     
 Charge   -0.22066     -0.26765     -0.08210      0.17753     -0.38317
   
 Atom       C11          O12          Si13         C14          C15     
 Charge    0.00433     -0.26942     -0.23475      0.16379      0.49932
   
 Atom       C16          C17          C18          C19          C20     
 Charge    0.20443     -0.13036     -0.30990     -0.26168     -0.03824
   
 Atom       Si21         O22          C23          C24          P25     
 Charge   -0.28269     -0.35340     -0.18058     -0.07995      0.83804
   
 Atom       O26          N27          C28          C29          C30     
 Charge   -0.61440     -0.53675      0.19336      0.18301      0.33278
   
 Atom       C31          C32          C33          C34          C35     
 Charge    0.47774      0.21789      0.10597     -0.16598     -0.22240
   
 Atom       C36          C37          C38          C39          C40     
 Charge   -0.14052     -0.19189     -0.21040     -0.27057     -0.39416
   
 Atom       C41          C42          C43          C44          C45     
 Charge   -0.25394     -0.17799     -0.18985     -0.06487     -0.19962
   
 Atom       C46          C47          C48          C49          C50     
 Charge   -0.13047     -0.15114     -0.08474     -0.16395     -0.08838
   
 Atom       C51          C52          C53          C54          C55     
 Charge   -0.15224     -0.11688     -0.14548     -0.11265     -0.12525
   
 Atom       C56          C57          C58          C59          C60     
 Charge   -0.09638     -0.11672     -0.12781     -0.15197     -0.11390
   
 Atom       C61          C62          C63          C64          C65     
 Charge   -0.15326     -0.13640     -0.08939     -0.10422     -0.33181
   
 Atom       C66          C67          C68          C69          C70     
 Charge    0.49600     -0.20454     -0.06911     -0.16692     -0.23590
   
 Atom       N71          S72          O73          O74          C75     
 Charge   -0.31167      0.66705     -0.44390     -0.43111      0.50754
   
 Atom       C76          C77          C78          C79          N80     
 Charge   -0.35457      0.17940     -0.40378      0.36054     -0.57926
   
 Atom       N81          C82          C83          C84          C85     
 Charge    0.15281     -0.15990     -0.13401     -0.31617      0.11001
   
 Atom       H86          H87          H88          H89          H90     
 Charge    0.08708      0.14400      0.13521      0.15651      0.12286
   
 Atom       H91          H92          H93          H94          H95     
 Charge    0.11478      0.16390      0.14840      0.13697      0.11883
   
 Atom       H96          H97          H98          H99          H100    
 Charge    0.10045      0.13256      0.13239      0.12566      0.12440
   
 Atom       H101         H102         H103         H104         H105    
 Charge    0.15223      0.19909      0.15549      0.12658      0.08707
   
 Atom       H106         H107         H108         H109         H110    
 Charge    0.08504      0.12552      0.12745      0.12883      0.11721
   
 Atom       H111         H112         H113         H114         H115    
 Charge    0.12737      0.11362      0.13191      0.11491      0.10600
   
 Atom       H116         H117         H118         H119         H120    
 Charge    0.12888      0.10761      0.09448      0.11956      0.12338
   
 Atom       H121         H122         H123         H124         H125    
 Charge    0.12901      0.12662      0.12680      0.12450      0.11414
   
 Atom       H126         H127         H128         H129         H130    
 Charge    0.14274      0.16250      0.15318      0.09111      0.13812
   
 Atom       H131         H132         H133         H134         H135    
 Charge    0.15582      0.17297      0.10679      0.18514      0.05838
   
 Atom       H136         H137         H138         H139         H140    
 Charge    0.19142      0.19318      0.16754      0.20657      0.11359
   
 Atom       S141         O142         C143         O144         F145    
 Charge    0.66420     -0.41121      0.45096     -0.46221     -0.10035
   
 Atom       F146         F147         H148    
 Charge   -0.14715     -0.15556      0.29843
  
  sum of atomic charges:     0.000000
   
 RMS Error   9.05E-04 hartrees
 
  Peak memory usage:    588 Mb
  
  end of program ch
   
 Time(ch)  user:       20.0  user+sys:       21.0  wallclock:       39.9
  
  start of program post
  
  Writing input files for PBF
  Peak memory usage:    536 Mb
  
  end of program post
   
 Time(post)  user:        0.0  user+sys:        0.0  wallclock:        0.5

  start of program pbf

Pbf Version 4.00

Rebuild_nml:  Small surface normal=2.864871e-09 SurfGridPt=[0.825 0.637 4.768]
Molecular surface area:      839.28502   [A2]
Reaction field energy:       -17.78061   [kT]
  Peak memory usage: 560 Mb

  end of program pbf

 Time(pbf)  user:       32.5  user+sys:       32.7  wallclock:       59.1
  
  start of program solv
  
   number of surface charges from PBF   13514
   sum of surface charges     -0.00054
   
  nuclear repulsion energy.......   20902.912050654 hartrees
  Peak memory usage:    701 Mb
  
  end of program solv
   
 Time(solv)  user:       42.0  user+sys:       42.0  wallclock:       73.8
  
  start of program scf
  
  
       i  u  d  i  g                   
       t  p  i  c  r                                 RMS    maximum
       e  d  i  u  i                       energy  density   DIIS  
       r  t  s  t  d       total energy    change  change    error 
  
etot    1  N  N  1  U   -5577.24508525463           9.2E-07  1.9E-05
etot    2  N  N  1  U   -5577.24508492376 -3.3E-07  0.0E+00  0.0E+00
  
  
 Energy components, in hartrees:
   (A)  Total zero-electron terms....   20905.95267786544
   (B)    Nuclear-nuclear............   20902.91205065361
   (C)    Nuclear-solvent............       3.04062721183
   (E)  Total one-electron terms.....  -49344.99140594841
   (F)    Electron-nuclear...........  -54877.16896112882
   (G)    Electron-solvent...........      -3.07806782168
   (H)    Kinetic....................    5535.25562300208
   (I)  Total two-electron terms.....   22861.79364315921
   (J)    Coulomb....................   23515.04564615844
   (K)    Exchange+Correlation.......    -653.25200299923
   (L)  Electronic energy............  -26483.19776278920  (E+I)
   (N)  Total quantum mech. energy...   -5577.24508492376  (A+L)
   (O)  Gas phase energy.............   -5577.20882059105
   (P)  Solution phase energy........   -5577.22636461884  (Q+R+S)
   (Q)    Total solute energy........   -5577.20764431392  (N-C-G)
   (R)    Total solvent energy.......      -0.01872030492  (C/2+G/2)
   (S)    Solute cavity energy.......       0.00000000000
   (U)  Reorganization energy........       0.00117627713  (Q-O)
   (V)  Solvation energy.............      -0.01754402779  (P-O)
  
 SCFE:  Solution phase energy: DFT(b3lyp)      -5577.22636461884 hartrees
        SCF iterations:   2
  
 
 HOMO energy:    -0.20203
 LUMO energy:    -0.09106
 
  Orbital energies (hartrees): 
   -89.12650   -89.09291   -77.23999   -66.11277   -66.10932   -24.72309
   -24.72273   -24.72056   -19.19874   -19.19661   -19.16233   -19.16053
   -19.12115   -19.11887   -19.11205   -14.39229   -14.38794   -14.35986
   -14.31186   -10.42648   -10.29023   -10.26474   -10.25756   -10.25585
   -10.25126   -10.24266   -10.23792   -10.22253   -10.21906   -10.21717
   -10.21657   -10.21384   -10.20709   -10.20539   -10.20519   -10.20312
   -10.20094   -10.20041   -10.19994   -10.19987   -10.19985   -10.19839
   -10.19545   -10.19347   -10.19237   -10.19112   -10.19104   -10.19008
   -10.18955   -10.18837   -10.18802   -10.18765   -10.18689   -10.18682
   -10.18681   -10.18671   -10.18664   -10.18622   -10.18611   -10.18606
   -10.18600   -10.18586   -10.18579   -10.18572   -10.18562   -10.18548
   -10.18547   -10.18430   -10.18395   -10.18388   -10.18323   -10.18205
   -10.18170   -10.18165   -10.18087   -10.18075   -10.18068   -10.18051
   -10.17987   -10.17846   -10.17382   -10.17363   -10.17235   -10.17168
   -10.17137   -10.17125   -10.17064   -10.17057   -10.16850   -10.16690
   -10.16559   -10.15867    -8.15245    -8.11769    -6.68481    -6.11766
    -6.11663    -6.11498    -6.08224    -6.08176    -6.08140    -5.25963
    -5.25606    -4.84953    -4.84858    -4.84613    -3.61866    -3.61835
    -3.61780    -3.61498    -3.61489    -3.61427    -1.30198    -1.21479
    -1.21314    -1.12870    -1.10311    -1.08629    -1.06368    -1.02043
    -1.00110    -0.97736    -0.97144    -0.97029    -0.95328    -0.87908
    -0.87046    -0.86615    -0.85968    -0.84145    -0.84093    -0.83735
    -0.83678    -0.83295    -0.82577    -0.82161    -0.81961    -0.80705
    -0.80068    -0.79724    -0.78841    -0.78037    -0.75511    -0.75498
    -0.74820    -0.74685    -0.74651    -0.74032    -0.74012    -0.73793
    -0.73721    -0.73712    -0.73337    -0.73305    -0.73154    -0.73083
    -0.73016    -0.72773    -0.72470    -0.72257    -0.71299    -0.71063
    -0.70566    -0.67300    -0.66487    -0.65087    -0.63322    -0.62650
    -0.61924    -0.61879    -0.61367    -0.61118    -0.60824    -0.60472
    -0.60335    -0.59744    -0.59533    -0.59408    -0.59217    -0.59101
    -0.59052    -0.58929    -0.58750    -0.58487    -0.58235    -0.58159
    -0.57854    -0.57813    -0.57655    -0.57431    -0.57228    -0.57112
    -0.56757    -0.56188    -0.55498    -0.54670    -0.54047    -0.53014
    -0.52760    -0.52511    -0.52089    -0.50627    -0.50579    -0.50475
    -0.50363    -0.50118    -0.49876    -0.49653    -0.49623    -0.49349
    -0.48721    -0.48516    -0.47866    -0.47289    -0.46898    -0.46621
    -0.46583    -0.46472    -0.46187    -0.46094    -0.45838    -0.45554
    -0.45209    -0.45109    -0.44881    -0.44814    -0.44682    -0.44617
    -0.44390    -0.44308    -0.43954    -0.43743    -0.43655    -0.43570
    -0.43529    -0.43430    -0.43355    -0.43197    -0.42995    -0.42900
    -0.42836    -0.42797    -0.42613    -0.42558    -0.42202    -0.42195
    -0.42070    -0.41907    -0.41766    -0.41709    -0.41701    -0.41594
    -0.41504    -0.41394    -0.41322    -0.41304    -0.41129    -0.40976
    -0.40913    -0.40415    -0.40295    -0.39582    -0.39433    -0.39332
    -0.39238    -0.38802    -0.38505    -0.38432    -0.38340    -0.37999
    -0.37514    -0.37296    -0.37091    -0.36818    -0.36490    -0.36268
    -0.35979    -0.35843    -0.35691    -0.35388    -0.35324    -0.35223
    -0.34982    -0.34767    -0.34531    -0.34450    -0.34218    -0.34051
    -0.33841    -0.33564    -0.33489    -0.33460    -0.33247    -0.33143
    -0.33111    -0.32826    -0.32713    -0.32612    -0.32168    -0.32159
    -0.32047    -0.31643    -0.31062    -0.30570    -0.30359    -0.29951
    -0.29800    -0.29519    -0.29080    -0.28857    -0.28629    -0.28593
    -0.28463    -0.28288    -0.28270    -0.27970    -0.27783    -0.27548
    -0.27157    -0.26868    -0.26319    -0.26001    -0.25889    -0.25258
    -0.25169    -0.24899    -0.24784    -0.24626    -0.24573    -0.24425
    -0.24006    -0.23897    -0.23578    -0.23452    -0.23424    -0.23336
    -0.22823    -0.22618    -0.22042    -0.20203    -0.09106    -0.05170
    -0.04375    -0.03217    -0.03039    -0.01848    -0.01683    -0.01331
    -0.01256    -0.01174
 
  Peak memory usage:    859 Mb
  
  end of program scf
   
 Time(scf)  user:      795.0  user+sys:      806.0  wallclock:     1176.2
  
  start of program sole
  
    SCRF                   solvation energy
  iteration          Hartrees            kcal/mol
     0               0.0000000            0.0000
     1              -0.0163062          -10.2323
     2              -0.0173019          -10.8571
     3              -0.0175714          -11.0262
     4              -0.0175440          -11.0090
  
  stopping: solvation energy converged
  
  iterations:   4    sfinal:    -11.0090 kcal/mol
  
  Peak memory usage:    635 Mb
  
  end of program sole
   
 Time(sole)  user:        0.0  user+sys:        0.0  wallclock:        0.2
  
  start of program post
  
  Writing input files for PBF
  Peak memory usage:    536 Mb
  
  end of program post
   
 Time(post)  user:        0.0  user+sys:        0.0  wallclock:        0.3

 Total cpu seconds     user:   18589.000   user+sys:   18783.000
  
 Total elapsed time:    21479 seconds

Job B3LYP_SPE_Toru-SiPh3-NTf-Type-I-E-3-chkp-unrestrained.mol completed on tethys at Tue Nov 22 17:40:41 2016
