Job Toru-SiPh3-NTf-Type-I-E-Sulfonyl-5-scan-unrestrained-SPE started on tethys at Mon Feb 27 12:31:41 2017
jobid: tethys-0-58b41c28

  +--------------------------------------------------------------------+
  |  Jaguar version 9.5, release  11                                   |
  |                                                                    |
  |  Copyright Schrodinger, Inc.                                       |
  |  All Rights Reserved.                                              |
  |                                                                    |
  |  The following have contributed to Jaguar (listed alphabetically): |
  |  Mike Beachy, Art Bochevarov, Dale Braden, Yixiang Cao,            |
  |  Chris Cortis, Rich Friesner, Bill Goddard, Hod Greeley,           |
  |  Tom Hughes, Leif Jacobson, Jean-Marc Langlois,                    |
  |  Daniel Mainz, Rob Murphy, Dean Philipp, Tom Pollard,              |
  |  Murco Ringnalda, Mark Watson, Haoyu Yu.                           |
  |                                                                    |
  |  Use of this program should be acknowledged in publications as:    |
  |                                                                    |
  |  Jaguar, version 9.5, Schrodinger, Inc., New York, NY, 2017.       |
  |                                                                    |
  |  A. D. Bochevarov, E. Harder, T. F. Hughes, J. R. Greenwood,       |
  |  D. A. Braden, D. M. Philipp, D. Rinaldo, M. D. Halls,             |
  |  J. Zhang, R. A. Friesner, "Jaguar: A High-Performance Quantum     |
  |  Chemistry Software Program with Strengths in Life and Materials   |
  |  Sciences", Int. J. Quantum Chem., 2013, 113(18), 2110-2142.       |
  +--------------------------------------------------------------------+
  
  start of program pre
  
  Job name: Toru-SiPh3-NTf-Type-I-E-Sulfonyl-5-scan-unrestrained-SPE
  Executables used: /usr/local/shared/schrodinger/current/jaguar-v9.5/bin/Linux-x86_64
  Temporary files : /scratch/ab2144/Toru-SiPh3-NTf-Type-I-E-Sulfonyl-5-scan-unrestrained-SPE
  Maestro file (input):  Toru-SiPh3-NTf-Type-I-E-Sulfonyl-5-scan-unrestrained-SPE.mae
  Maestro file (output): Toru-SiPh3-NTf-Type-I-E-Sulfonyl-5-scan-unrestrained-SPE.01.mae
  
  basis set:             6-31g**                         
  net molecular charge:    0
  multiplicity:            1
  
  keygrid settings 
    wispc.....   7.500E-01
    ldens.....   0
    denspc....   7.500E-01
  
   grid     daf set  nls  grid set  Q type
  ------    -------  ---  --------  ------
  coarse       1      1       1        1
  medium       2      2       2        1
  fine         3      2       3        0
  ultrafine    4      2       4        1
  charge       0      1      -1        1
  gradient     5      2       4        1
  density      0      1       0        0
  DFT-fine     0      1     -13        0
  DFT-med.     0      1     -13        0
  DFT-grad     0      1     -13        0
  DFT-der2     0      1       0        0
  DFT-cphf     0      1       0        0
  LMP2-enrg    4      2       4        1
  LMP2-grad    5      2       2        1
  DFT-cphf2    0      1       0        0
  PBF-dens     0      1       0        0
  plotting     0      1       0        0
  Rel-grad     0      1     -17        0
  
  idftgrdm  100
  ndftgrdm   50    0    0
  idftgrdf  111
  ndftgrdf   85    0    0
  idftgrdg  111
  ndftgrdg   80    3    0
  idftgrdu  433
  ndftgrdu  105    0    0
  idftgrdd  433
  ndftgrdd  105    0    0
  idftgrdc  433
  ndftgrdc   26    0    0
  idftgrdp  433
  ndftgrdp   18    0    0
  
  number of basis functions....          682
  
 Input geometry:
                                   angstroms
  atom               x                 y                 z
  C1            5.0133000000     -2.0058000000      0.6654000000 
  C2            5.9147000000     -1.0718000000      0.2945000000 
  C3            5.3911000000     -0.1526000000     -0.7288000000 
  C4            4.8376000000     -0.8418000000     -1.7447000000 
  H5            6.8489000000     -0.9891000000      0.8434000000 
  H6            5.1898000000     -2.7348000000      1.4508000000 
  H7            5.2613000000     -1.7810000000     -2.0958000000 
  H8            4.9757000000      0.8033000000     -0.4202000000 
  O9            3.7353000000     -2.1925000000      0.1454000000 
  P10           2.6957000000     -1.2083000000     -0.6808000000 
  O11           3.4861000000     -0.7136000000     -2.0666000000 
  O12           1.5188000000     -2.0356000000     -1.0815000000 
  N13           2.4900000000      0.0331000000      0.3378000000 
  S14           1.4640000000      1.2100000000      0.1289000000 
  O15           1.3266000000      1.7507000000     -1.2343000000 
  O16           0.1807000000      1.0040000000      0.8663000000 
  C17           2.3075000000      2.5449000000      1.1177000000 
  F18           1.5634000000      3.6604000000      1.0579000000 
  F19           2.4506000000      2.1911000000      2.3951000000 
  F20           3.5127000000      2.8107000000      0.5985000000 
  H21          -1.3345000000      0.3356000000      0.2191000000 
  C22          -2.8075000000     -1.1767000000      0.0408000000 
  N23          -2.3036000000      0.0981000000     -0.0586000000 
  S24          -2.9698000000      1.1535000000     -1.2415000000 
  O25          -2.1502000000      1.0639000000     -2.4560000000 
  O26          -4.3973000000      0.8403000000     -1.2946000000 
  C27          -2.2372000000      5.1404000000      0.7093000000 
  C28          -3.3512000000      4.3431000000      0.9892000000 
  N29          -3.5606000000      3.1572000000      0.4094000000 
  C30          -2.6522000000      2.7634000000     -0.4728000000 
  C31          -1.5023000000      3.4568000000     -0.8409000000 
  C32          -1.2969000000      4.6869000000     -0.2129000000 
  H33          -2.1121000000      6.0925000000      1.2147000000 
  H34          -4.1007000000      4.6646000000      1.7081000000 
  H35          -0.7946000000      3.0411000000     -1.5481000000 
  H36          -0.4106000000      5.2700000000     -0.4395000000 
  C37          -1.8001000000     -3.6220000000      3.4096000000 
  C38          -0.8770000000     -2.6808000000      2.9472000000 
  C39          -1.1721000000     -1.8830000000      1.8444000000 
  C40          -2.4099000000     -2.0184000000      1.1917000000 
  C41          -3.3264000000     -2.9767000000      1.6549000000 
  C42          -3.0269000000     -3.7690000000      2.7612000000 
  H43          -1.5638000000     -4.2377000000      4.2724000000 
  H44           0.0787000000     -2.5618000000      3.4476000000 
  H45          -0.4430000000     -1.1514000000      1.5121000000 
  H46          -4.2836000000     -3.0887000000      1.1540000000 
  H47          -3.7513000000     -4.4953000000      3.1166000000 
  H48          -3.8672000000     -1.1983000000     -0.1954000000 
  C49          -1.1872000000     -4.1080000000     -1.1368000000 
  C50          -2.5429000000     -4.4454000000     -1.3797000000 
  C51          -3.1789000000     -3.2749000000     -1.7381000000 
  C52          -2.2380000000     -2.1954000000     -1.6244000000 
  H53          -0.3643000000     -4.7391000000     -0.8292000000 
  H54          -2.9692000000     -5.4342000000     -1.2920000000 
  H55          -4.2209000000     -3.1496000000     -2.0017000000 
  H56          -2.2197000000     -1.3327000000     -2.2821000000 
  N57          -1.0072000000     -2.8076000000     -1.3379000000 
  H58          -0.0755000000     -2.3468000000     -1.2464000000 
   
  principal moments of inertia:
        amu*angstrom^2:     4981.61910     6086.21351     8718.91782
                g*cm^2: 8.27217210E-37 1.01063940E-36 1.44781019E-36
   
  rotational constants:
               cm^(-1):      0.00338397      0.00276981      0.00193345
                   GHz:      0.10144875      0.08303669      0.05796350
   
  Molecular weight:     592.05 amu
   
  Stoichiometry: C21PN4H20S2O7F3
[running at reduced cpu priority]
  Molecular Point Group: C1      
  Point Group used: C1
  
  nuclear repulsion energy.......    5486.855463598 hartrees
 
 Non-default options chosen:
   SCF calculation type: DFT(m06-2x)                 
   DFT=M06-2X
   Solvation energy will be computed using PBF
     -solute cavity energy will not be included
     -surface area terms will not be included
   Highest accuracy cutoffs used in SCF
   Solvent: other                                                           
   Internal dielectric constant:    1.000
   Continuum dielectric constant:   2.380
   Solvent probe molecule radius:   2.760
  
 Temporary integer options set:
     73=  2
  
  atom       vdw   vdw2    cov     mass  grid  daf  charge   basis
  C1        1.949  1.900  0.770   12.000    Y    Y      Y    6-31g**
  C2        1.949  1.900  0.770   12.000    Y    Y      Y    6-31g**
  C3        1.949  1.900  0.770   12.000    Y    Y      Y    6-31g**
  C4        1.949  1.900  0.770   12.000    Y    Y      Y    6-31g**
  H5        1.597  1.150  0.320    1.008    Y    Y      Y    6-31g**
  H6        1.597  1.150  0.320    1.008    Y    Y      Y    6-31g**
  H7        1.597  1.150  0.320    1.008    Y    Y      Y    6-31g**
  H8        1.597  1.150  0.320    1.008    Y    Y      Y    6-31g**
  O9        1.702  1.600  0.730   15.995    Y    Y      Y    6-31g**
  P10       2.147  2.074  1.060   30.974    Y    Y      Y    6-31g**
  O11       1.702  1.600  0.730   15.995    Y    Y      Y    6-31g**
  O12       1.702  1.600  0.730   15.995    Y    Y      Y    6-31g**
  N13       1.831  1.600  0.750   14.003    Y    Y      Y    6-31g**
  S14       2.070  1.900  1.020   31.972    Y    Y      Y    6-31g**
  O15       1.702  1.600  0.730   15.995    Y    Y      Y    6-31g**
  O16       1.702  1.600  0.730   15.995    Y    Y      Y    6-31g**
  C17       1.949  1.900  0.770   12.000    Y    Y      Y    6-31g**
  F18       1.736  1.682  0.720   18.998    Y    Y      Y    6-31g**
  F19       1.736  1.682  0.720   18.998    Y    Y      Y    6-31g**
  F20       1.736  1.682  0.720   18.998    Y    Y      Y    6-31g**
  H21       1.597  1.150  0.320    1.008    Y    Y      Y    6-31g**
  C22       1.949  1.900  0.770   12.000    Y    Y      Y    6-31g**
  N23       1.831  1.600  0.750   14.003    Y    Y      Y    6-31g**
  S24       2.070  1.900  1.020   31.972    Y    Y      Y    6-31g**
  O25       1.702  1.600  0.730   15.995    Y    Y      Y    6-31g**
  O26       1.702  1.600  0.730   15.995    Y    Y      Y    6-31g**
  C27       1.949  1.900  0.770   12.000    Y    Y      Y    6-31g**
  C28       1.949  1.900  0.770   12.000    Y    Y      Y    6-31g**
  N29       1.831  1.600  0.750   14.003    Y    Y      Y    6-31g**
  C30       1.949  1.900  0.770   12.000    Y    Y      Y    6-31g**
  C31       1.949  1.900  0.770   12.000    Y    Y      Y    6-31g**
  C32       1.949  1.900  0.770   12.000    Y    Y      Y    6-31g**
  H33       1.597  1.150  0.320    1.008    Y    Y      Y    6-31g**
  H34       1.597  1.150  0.320    1.008    Y    Y      Y    6-31g**
  H35       1.597  1.150  0.320    1.008    Y    Y      Y    6-31g**
  H36       1.597  1.150  0.320    1.008    Y    Y      Y    6-31g**
  C37       1.949  1.900  0.770   12.000    Y    Y      Y    6-31g**
  C38       1.949  1.900  0.770   12.000    Y    Y      Y    6-31g**
  C39       1.949  1.900  0.770   12.000    Y    Y      Y    6-31g**
  C40       1.949  1.900  0.770   12.000    Y    Y      Y    6-31g**
  C41       1.949  1.900  0.770   12.000    Y    Y      Y    6-31g**
  C42       1.949  1.900  0.770   12.000    Y    Y      Y    6-31g**
  H43       1.597  1.150  0.320    1.008    Y    Y      Y    6-31g**
  H44       1.597  1.150  0.320    1.008    Y    Y      Y    6-31g**
  H45       1.597  1.150  0.320    1.008    Y    Y      Y    6-31g**
  H46       1.597  1.150  0.320    1.008    Y    Y      Y    6-31g**
  H47       1.597  1.150  0.320    1.008    Y    Y      Y    6-31g**
  H48       1.597  1.150  0.320    1.008    Y    Y      Y    6-31g**
  C49       1.949  1.900  0.770   12.000    Y    Y      Y    6-31g**
  C50       1.949  1.900  0.770   12.000    Y    Y      Y    6-31g**
  C51       1.949  1.900  0.770   12.000    Y    Y      Y    6-31g**
  C52       1.949  1.900  0.770   12.000    Y    Y      Y    6-31g**
  H53       1.597  1.150  0.320    1.008    Y    Y      Y    6-31g**
  H54       1.597  1.150  0.320    1.008    Y    Y      Y    6-31g**
  H55       1.597  1.150  0.320    1.008    Y    Y      Y    6-31g**
  H56       1.597  1.150  0.320    1.008    Y    Y      Y    6-31g**
  N57       1.831  1.600  0.750   14.003    Y    Y      Y    6-31g**
  H58       1.597  1.150  0.320    1.008    Y    Y      Y    6-31g**
  
  Peak memory usage:    754 Mb
  
  end of program pre
   
 Time(pre)  user:        0.9  user+sys:        0.9  wallclock:        5.5
  
  start of program onee
  
  smallest eigenvalue of S:    4.404E-04
  number of canonical orbitals.....          681
  Peak memory usage:    852 Mb
  
  end of program onee
   
 Time(onee)  user:        1.4  user+sys:        1.4  wallclock:        5.0
  
  start of program hfig
  
  initial wavefunction generated automatically from atomic wavefunctions
 
  Irreducible     Total no   No of occupied orbitals 
  representation  orbitals   Shell_1  Shell_2    ...
  No Symm          681        152
  ------------------------
  Orbital occupation/shell    1.000
 
  Peak memory usage:    786 Mb
  
  end of program hfig
   
 Time(hfig)  user:        2.0  user+sys:        2.0  wallclock:        5.0
** Stopping job prematurely at user request **
