Job B3LYP-SPE-Toru-SiPh3-Type-I-E-5-chkp-2-unrestrained. started on tethys at Mon Nov 28 11:06:44 2016
jobid: tethys-0-583c0fc4

  +--------------------------------------------------------------------+
  |  Jaguar version 8.4, release  16                                   |
  |                                                                    |
  |  Copyright Schrodinger, Inc.                                       |
  |  All Rights Reserved.                                              |
  |                                                                    |
  |  The following have contributed to Jaguar (listed alphabetically): |
  |  Mike Beachy, Art Bochevarov, Dale Braden, Yixiang Cao,            |
  |  Chris Cortis, Rich Friesner, Bill Goddard, Hod Greeley,           |
  |  Tom Hughes, Jean-Marc Langlois, Daniel Mainz, Rob Murphy,         |
  |  Dean Philipp, Tom Pollard, Murco Ringnalda.                       |
  |                                                                    |
  |  Use of this program should be acknowledged in publications as:    |
  |                                                                    |
  |  Jaguar, version 8.4, Schrodinger, Inc., New York, NY, 2013.       |
  |                                                                    |
  |  A. D. Bochevarov, E. Harder, T. F. Hughes, J. R. Greenwood,       |
  |  D. A. Braden, D. M. Philipp, D. Rinaldo, M. D. Halls,             |
  |  J. Zhang, R. A. Friesner, "Jaguar: A High-Performance Quantum     |
  |  Chemistry Software Program with Strengths in Life and Materials   |
  |  Sciences", Int. J. Quantum Chem., 2013, 113(18), 2110-2142.       |
  +--------------------------------------------------------------------+
  
  start of program pre
  
  Job name: B3LYP-SPE-Toru-SiPh3-Type-I-E-5-chkp-2-unrestrained.
  Executables used: /usr/local/shared/schrodinger/current/jaguar-v84016/bin/Linux-x86_64
  Temporary files : /home/ab2144/.schrodinger/tmp/B3LYP-SPE-Toru-SiPh3-Type-I-E-5-chkp-2-unrestrained.
  Maestro file (input):  B3LYP-SPE-Toru-SiPh3-Type-I-E-5-chkp-2-unrestrained..mae
  Maestro file (output): B3LYP-SPE-Toru-SiPh3-Type-I-E-5-chkp-2-unrestrained..01.mae
  
  
  basis set:             6-31g**         
  net molecular charge:    0
  multiplicity:            1
  
  keygrid settings 
    wispc.....   7.500E-01
    ldens.....   0
    denspc....   7.500E-01
  
   grid     daf set  nls  grid set  Q type
  ------    -------  ---  --------  ------
  coarse       1      1       1        1
  medium       2      2       2        1
  fine         3      2       3        0
  ultrafine    4      2       4        1
  charge       0      1      -1        1
  gradient     5      2       4        1
  density      0      1       0        0
  DFT-fine     0      1     -13        0
  DFT-med.     0      1     -13        0
  DFT-grad     0      1     -13        0
  DFT-der2     0      1       0        0
  DFT-cphf     0      1       0        0
  LMP2-enrg    4      2       4        1
  LMP2-grad    5      2       2        1
  DFT-cphf2    0      1       0        0
  PBF-dens     0      1       0        0
  plotting     0      1       0        0
  
  idftgrdm  100
  ndftgrdm   50    0    0
  idftgrdf  111
  ndftgrdf   85    0    0
  idftgrdg  111
  ndftgrdg   80    3    0
  idftgrdu  433
  ndftgrdu  105    0    0
  idftgrdd  433
  ndftgrdd  105    0    0
  idftgrdc  433
  ndftgrdc   26    0    0
  idftgrdp  433
  ndftgrdp   18    0    0
  
  number of basis functions....         1571
  
 Input geometry:
                                   angstroms
  atom               x                 y                 z
  C1            1.5108000000      5.4896000000      0.2937000000 
  C2            2.1830000000      4.1604000000      0.2563000000 
  C3            2.2075000000      6.6079000000      0.0611000000 
  C4            3.4944000000      4.1012000000     -0.0619000000 
  C5            1.4305000000      2.8948000000      0.5158000000 
  C6            4.2582000000      5.3460000000     -0.3117000000 
  C7            4.1706000000      2.7965000000     -0.1712000000 
  C8            3.6475000000      6.5337000000     -0.2480000000 
  C9            2.0227000000      1.7002000000      0.2742000000 
  C10           0.0199000000      2.9400000000      0.9753000000 
  C11           3.4873000000      1.6536000000     -0.0101000000 
  O12           1.3337000000      0.5258000000      0.4769000000 
  Si13          4.4037000000      0.0286000000     -0.1042000000 
  C14          -0.3569000000      3.5216000000      2.1368000000 
  C15          -1.0093000000      2.3590000000      0.0783000000 
  C16          -1.8028000000      3.6852000000      2.4366000000 
  C17           0.6126000000      4.0172000000      3.1454000000 
  C18          -2.7260000000      3.2665000000      1.5603000000 
  C19          -2.1935000000      4.3448000000      3.6980000000 
  C20          -2.3182000000      2.5891000000      0.3089000000 
  Si21         -3.6499000000      2.0078000000     -0.8592000000 
  O22          -0.5978000000      1.6168000000     -0.9981000000 
  C23           0.1833000000      4.6025000000      4.2699000000 
  C24          -1.2584000000      4.7747000000      4.5523000000 
  P25           0.0934000000      0.1891000000     -0.5678000000 
  O26           0.6057000000     -0.4194000000     -1.8499000000 
  O27          -0.8938000000     -0.6235000000      0.2521000000 
  C28           4.1232000000     -0.7587000000     -1.7723000000 
  C29           6.2259000000      0.3459000000      0.1218000000 
  C30           3.8486000000     -1.0290000000      1.3268000000 
  C31          -4.2261000000      0.3169000000     -0.3289000000 
  C32          -5.0620000000      3.2226000000     -0.7860000000 
  C33          -2.9615000000      1.9691000000     -2.5921000000 
  C34           3.3954000000     -0.1318000000     -2.7122000000 
  C35           4.7799000000     -2.0471000000     -2.1079000000 
  C36           6.6902000000      0.7945000000      1.3008000000 
  C37           7.1738000000      0.1483000000     -1.0034000000 
  C38           3.7444000000     -2.3636000000      1.2229000000 
  C39           3.5637000000     -0.3805000000      2.6315000000 
  C40          -5.0430000000     -0.4036000000     -1.1162000000 
  C41          -3.8077000000     -0.2362000000      0.9822000000 
  C42          -6.3376000000      2.8110000000     -0.6807000000 
  C43          -4.7695000000      4.6776000000     -0.8024000000 
  C44          -2.7053000000      3.1092000000     -3.2557000000 
  C45          -2.6011000000      0.6746000000     -3.2169000000 
  C46           3.1934000000     -0.7521000000     -4.0379000000 
  C47           3.7617000000     -1.9293000000     -4.3212000000 
  C48           4.6003000000     -2.6043000000     -3.3115000000 
  C49           8.1320000000      1.0614000000      1.4823000000 
  C50           8.9827000000      0.8680000000      0.4682000000 
  C51           8.4793000000      0.3937000000     -0.8361000000 
  C52           3.3654000000     -3.1765000000      2.3969000000 
  C53           3.1193000000     -2.5863000000      3.5715000000 
  C54           3.2172000000     -1.1187000000      3.6926000000 
  C55          -5.5029000000     -1.7414000000     -0.6874000000 
  C56          -5.1069000000     -2.2416000000      0.4885000000 
  C57          -4.2244000000     -1.4485000000      1.3658000000 
  C58          -7.4361000000      3.7975000000     -0.6142000000 
  C59          -7.1655000000      5.1072000000     -0.6449000000 
  C60          -5.7664000000      5.5684000000     -0.7379000000 
  C61          -2.1102000000      3.0680000000     -4.6083000000 
  C62          -1.8016000000      1.8937000000     -5.1704000000 
  C63          -2.0517000000      0.6381000000     -4.4363000000 
  C64          -2.8004000000     -5.5336000000     -2.8598000000 
  C65          -1.8929000000     -5.4026000000     -1.8121000000 
  C66          -1.6608000000     -4.1520000000     -1.2152000000 
  C67          -2.3379000000     -3.0222000000     -1.7022000000 
  C68          -3.2381000000     -3.1593000000     -2.7577000000 
  C69          -3.4749000000     -4.4086000000     -3.3348000000 
  C70          -0.7421000000     -4.1036000000     -0.0606000000 
  N71          -0.8348000000     -3.1001000000      0.8694000000 
  S72          -0.4223000000     -3.4329000000      2.4710000000 
  O73           0.4185000000     -4.6367000000      2.4792000000 
  O74           0.0138000000     -2.1853000000      3.0908000000 
  C75          -2.0253000000     -3.8622000000      3.2062000000 
  C76          -2.4412000000     -3.2015000000      4.3588000000 
  C77          -3.6770000000     -3.5766000000      4.8879000000 
  C78          -4.4138000000     -4.5688000000      4.2439000000 
  C79          -3.8858000000     -5.1586000000      3.0924000000 
  N80          -2.7016000000     -4.8157000000      2.5753000000 
  N81           1.0176000000     -2.9877000000     -1.9332000000 
  C82           1.0539000000     -3.6288000000     -3.0969000000 
  C83           1.3212000000     -5.0048000000     -2.8838000000 
  C84           1.4352000000     -5.1730000000     -1.5175000000 
  C85           1.1480000000     -3.9171000000     -0.8936000000 
  H86           0.4510000000      5.5698000000      0.4944000000 
  H87           1.7137000000      7.5707000000      0.0892000000 
  H88           5.3140000000      5.2987000000     -0.5483000000 
  H89           5.2293000000      2.7822000000     -0.3954000000 
  H90           4.2058000000      7.4425000000     -0.4319000000 
  H91           1.6782000000      3.8982000000      2.9965000000 
  H92          -3.7791000000      3.3987000000      1.7782000000 
  H93          -3.2403000000      4.4865000000      3.9392000000 
  H94           0.9050000000      4.9540000000      4.9961000000 
  H95          -1.5592000000      5.2565000000      5.4738000000 
  H96          -0.8809000000     -2.0312000000      0.6135000000 
  H97           2.9397000000      0.8299000000     -2.5192000000 
  H98           5.4352000000     -2.5290000000     -1.3943000000 
  H99           6.0212000000      0.9725000000      2.1315000000 
  H100          6.8211000000     -0.1761000000     -1.9722000000 
  H101          3.9396000000     -2.8726000000      0.2943000000 
  H102          3.6297000000      0.6954000000      2.7329000000 
  H103         -5.3693000000     -0.0190000000     -2.0745000000 
  H104         -3.1671000000      0.3338000000      1.6414000000 
  H105         -6.5894000000      1.7618000000     -0.6448000000 
  H106         -3.7467000000      5.0292000000     -0.8424000000 
  H107         -2.9177000000      4.0718000000     -2.8156000000 
  H108         -2.7420000000     -0.2446000000     -2.6751000000 
  H109          2.5819000000     -0.2521000000     -4.7778000000 
  H110          3.6132000000     -2.3858000000     -5.2911000000 
  H111          5.0838000000     -3.5417000000     -3.5540000000 
  H112          8.4974000000      1.4148000000      2.4379000000 
  H113         10.0390000000      1.0644000000      0.5992000000 
  H114          9.1681000000      0.2538000000     -1.6591000000 
  H115          3.2888000000     -4.2520000000      2.3029000000 
  H116          2.8390000000     -3.1811000000      4.4311000000 
  H117          3.0074000000     -0.6420000000      4.6413000000 
  H118         -6.1506000000     -2.3199000000     -1.3331000000 
  H119         -5.4342000000     -3.2250000000      0.8008000000 
  H120         -3.9239000000     -1.8451000000      2.3243000000 
  H121         -8.4608000000      3.4566000000     -0.5402000000 
  H122         -7.9693000000      5.8302000000     -0.5951000000 
  H123         -5.5488000000      6.6286000000     -0.7434000000 
  H124         -1.9200000000      3.9910000000     -5.1404000000 
  H125         -1.3609000000      1.8619000000     -6.1584000000 
  H126         -1.7766000000     -0.3103000000     -4.8798000000 
  H127         -2.9819000000     -6.5095000000     -3.3000000000 
  H128         -1.3700000000     -6.2776000000     -1.4379000000 
  H129         -2.1650000000     -2.0544000000     -1.2418000000 
  H130         -3.7717000000     -2.2927000000     -3.1326000000 
  H131         -4.1846000000     -4.5029000000     -4.1514000000 
  H132         -0.5348000000     -5.0694000000      0.3879000000 
  H133         -1.8268000000     -2.4244000000      4.7968000000 
  H134         -4.0585000000     -3.0952000000      5.7830000000 
  H135         -5.3822000000     -4.8820000000      4.6196000000 
  H136         -4.4353000000     -5.9328000000      2.5623000000 
  H137          0.8472000000     -1.9285000000     -1.8399000000 
  H138          0.8857000000     -3.0994000000     -4.0253000000 
  H139          1.4078000000     -5.7557000000     -3.6561000000 
  H140          1.6441000000     -6.0891000000     -0.9813000000 
  H141          1.5643000000     -3.5934000000      0.0472000000 
   
  principal moments of inertia:
        amu*angstrom^2:    18664.07964    22216.89289    28223.02697
                g*cm^2: 3.09924295E-36 3.68920140E-36 4.68654330E-36
   
  rotational constants:
               cm^(-1):      0.00090321      0.00075878      0.00059730
                   GHz:      0.02707763      0.02274751      0.01790662
   
  Molecular weight:    1177.32 amu
   
  Stoichiometry: Si2C72PN3H56SO6
  Molecular Point Group: C1      
  Point Group used: C1
  
  nuclear repulsion energy.......   17272.054674602 hartrees
 
 Non-default options chosen:
   SCF calculation type: DFT(b3lyp)                  
   DFT=Becke_3_Parameter/HF+Slater+Becke88+VWN+LYP (B3LYP)
   Solvation energy will be computed using PBF
     -solute cavity energy will not be included
     -surface area terms will not be included
   Highest accuracy cutoffs used in SCF
   Solvent: other                                                           
   Internal dielectric constant:    1.000
   Continuum dielectric constant:   2.380
   Solvent probe molecule radius:   2.760
  
 Temporary integer options set:
     73=  2
  
  atom       vdw   vdw2    cov     mass  grid  daf  charge   basis
  C1        1.949  1.900  0.770   12.000    Y    Y      Y    6-31g**
  C2        1.949  1.900  0.770   12.000    Y    Y      Y    6-31g**
  C3        1.949  1.900  0.770   12.000    Y    Y      Y    6-31g**
  C4        1.949  1.900  0.770   12.000    Y    Y      Y    6-31g**
  C5        1.949  1.900  0.770   12.000    Y    Y      Y    6-31g**
  C6        1.949  1.900  0.770   12.000    Y    Y      Y    6-31g**
  C7        1.949  1.900  0.770   12.000    Y    Y      Y    6-31g**
  C8        1.949  1.900  0.770   12.000    Y    Y      Y    6-31g**
  C9        1.949  1.900  0.770   12.000    Y    Y      Y    6-31g**
  C10       1.949  1.900  0.770   12.000    Y    Y      Y    6-31g**
  C11       1.949  1.900  0.770   12.000    Y    Y      Y    6-31g**
  O12       1.702  1.600  0.730   15.995    Y    Y      Y    6-31g**
  Si13      2.217  2.147  1.110   27.977    Y    Y      Y    6-31g**
  C14       1.949  1.900  0.770   12.000    Y    Y      Y    6-31g**
  C15       1.949  1.900  0.770   12.000    Y    Y      Y    6-31g**
  C16       1.949  1.900  0.770   12.000    Y    Y      Y    6-31g**
  C17       1.949  1.900  0.770   12.000    Y    Y      Y    6-31g**
  C18       1.949  1.900  0.770   12.000    Y    Y      Y    6-31g**
  C19       1.949  1.900  0.770   12.000    Y    Y      Y    6-31g**
  C20       1.949  1.900  0.770   12.000    Y    Y      Y    6-31g**
  Si21      2.217  2.147  1.110   27.977    Y    Y      Y    6-31g**
  O22       1.702  1.600  0.730   15.995    Y    Y      Y    6-31g**
  C23       1.949  1.900  0.770   12.000    Y    Y      Y    6-31g**
  C24       1.949  1.900  0.770   12.000    Y    Y      Y    6-31g**
  P25       2.147  2.074  1.060   30.974    Y    Y      Y    6-31g**
  O26       1.702  1.600  0.730   15.995    Y    Y      Y    6-31g**
  O27       1.702  1.600  0.730   15.995    Y    Y      Y    6-31g**
  C28       1.949  1.900  0.770   12.000    Y    Y      Y    6-31g**
  C29       1.949  1.900  0.770   12.000    Y    Y      Y    6-31g**
  C30       1.949  1.900  0.770   12.000    Y    Y      Y    6-31g**
  C31       1.949  1.900  0.770   12.000    Y    Y      Y    6-31g**
  C32       1.949  1.900  0.770   12.000    Y    Y      Y    6-31g**
  C33       1.949  1.900  0.770   12.000    Y    Y      Y    6-31g**
  C34       1.949  1.900  0.770   12.000    Y    Y      Y    6-31g**
  C35       1.949  1.900  0.770   12.000    Y    Y      Y    6-31g**
  C36       1.949  1.900  0.770   12.000    Y    Y      Y    6-31g**
  C37       1.949  1.900  0.770   12.000    Y    Y      Y    6-31g**
  C38       1.949  1.900  0.770   12.000    Y    Y      Y    6-31g**
  C39       1.949  1.900  0.770   12.000    Y    Y      Y    6-31g**
  C40       1.949  1.900  0.770   12.000    Y    Y      Y    6-31g**
  C41       1.949  1.900  0.770   12.000    Y    Y      Y    6-31g**
  C42       1.949  1.900  0.770   12.000    Y    Y      Y    6-31g**
  C43       1.949  1.900  0.770   12.000    Y    Y      Y    6-31g**
  C44       1.949  1.900  0.770   12.000    Y    Y      Y    6-31g**
  C45       1.949  1.900  0.770   12.000    Y    Y      Y    6-31g**
  C46       1.949  1.900  0.770   12.000    Y    Y      Y    6-31g**
  C47       1.949  1.900  0.770   12.000    Y    Y      Y    6-31g**
  C48       1.949  1.900  0.770   12.000    Y    Y      Y    6-31g**
  C49       1.949  1.900  0.770   12.000    Y    Y      Y    6-31g**
  C50       1.949  1.900  0.770   12.000    Y    Y      Y    6-31g**
  C51       1.949  1.900  0.770   12.000    Y    Y      Y    6-31g**
  C52       1.949  1.900  0.770   12.000    Y    Y      Y    6-31g**
  C53       1.949  1.900  0.770   12.000    Y    Y      Y    6-31g**
  C54       1.949  1.900  0.770   12.000    Y    Y      Y    6-31g**
  C55       1.949  1.900  0.770   12.000    Y    Y      Y    6-31g**
  C56       1.949  1.900  0.770   12.000    Y    Y      Y    6-31g**
  C57       1.949  1.900  0.770   12.000    Y    Y      Y    6-31g**
  C58       1.949  1.900  0.770   12.000    Y    Y      Y    6-31g**
  C59       1.949  1.900  0.770   12.000    Y    Y      Y    6-31g**
  C60       1.949  1.900  0.770   12.000    Y    Y      Y    6-31g**
  C61       1.949  1.900  0.770   12.000    Y    Y      Y    6-31g**
  C62       1.949  1.900  0.770   12.000    Y    Y      Y    6-31g**
  C63       1.949  1.900  0.770   12.000    Y    Y      Y    6-31g**
  C64       1.949  1.900  0.770   12.000    Y    Y      Y    6-31g**
  C65       1.949  1.900  0.770   12.000    Y    Y      Y    6-31g**
  C66       1.949  1.900  0.770   12.000    Y    Y      Y    6-31g**
  C67       1.949  1.900  0.770   12.000    Y    Y      Y    6-31g**
  C68       1.949  1.900  0.770   12.000    Y    Y      Y    6-31g**
  C69       1.949  1.900  0.770   12.000    Y    Y      Y    6-31g**
  C70       1.949  1.900  0.770   12.000    Y    Y      Y    6-31g**
  N71       1.831  1.600  0.750   14.003    Y    Y      Y    6-31g**
  S72       2.070  1.900  1.020   31.972    Y    Y      Y    6-31g**
  O73       1.702  1.600  0.730   15.995    Y    Y      Y    6-31g**
  O74       1.702  1.600  0.730   15.995    Y    Y      Y    6-31g**
  C75       1.949  1.900  0.770   12.000    Y    Y      Y    6-31g**
  C76       1.949  1.900  0.770   12.000    Y    Y      Y    6-31g**
  C77       1.949  1.900  0.770   12.000    Y    Y      Y    6-31g**
  C78       1.949  1.900  0.770   12.000    Y    Y      Y    6-31g**
  C79       1.949  1.900  0.770   12.000    Y    Y      Y    6-31g**
  N80       1.831  1.600  0.750   14.003    Y    Y      Y    6-31g**
  N81       1.831  1.600  0.750   14.003    Y    Y      Y    6-31g**
  C82       1.949  1.900  0.770   12.000    Y    Y      Y    6-31g**
  C83       1.949  1.900  0.770   12.000    Y    Y      Y    6-31g**
  C84       1.949  1.900  0.770   12.000    Y    Y      Y    6-31g**
  C85       1.949  1.900  0.770   12.000    Y    Y      Y    6-31g**
  H86       1.597  1.150  0.320    1.008    Y    Y      Y    6-31g**
  H87       1.597  1.150  0.320    1.008    Y    Y      Y    6-31g**
  H88       1.597  1.150  0.320    1.008    Y    Y      Y    6-31g**
  H89       1.597  1.150  0.320    1.008    Y    Y      Y    6-31g**
  H90       1.597  1.150  0.320    1.008    Y    Y      Y    6-31g**
  H91       1.597  1.150  0.320    1.008    Y    Y      Y    6-31g**
  H92       1.597  1.150  0.320    1.008    Y    Y      Y    6-31g**
  H93       1.597  1.150  0.320    1.008    Y    Y      Y    6-31g**
  H94       1.597  1.150  0.320    1.008    Y    Y      Y    6-31g**
  H95       1.597  1.150  0.320    1.008    Y    Y      Y    6-31g**
  H96       1.597  1.150  0.320    1.008    Y    Y      Y    6-31g**
  H97       1.597  1.150  0.320    1.008    Y    Y      Y    6-31g**
  H98       1.597  1.150  0.320    1.008    Y    Y      Y    6-31g**
  H99       1.597  1.150  0.320    1.008    Y    Y      Y    6-31g**
  H100      1.597  1.150  0.320    1.008    Y    Y      Y    6-31g**
  H101      1.597  1.150  0.320    1.008    Y    Y      Y    6-31g**
  H102      1.597  1.150  0.320    1.008    Y    Y      Y    6-31g**
  H103      1.597  1.150  0.320    1.008    Y    Y      Y    6-31g**
  H104      1.597  1.150  0.320    1.008    Y    Y      Y    6-31g**
  H105      1.597  1.150  0.320    1.008    Y    Y      Y    6-31g**
  H106      1.597  1.150  0.320    1.008    Y    Y      Y    6-31g**
  H107      1.597  1.150  0.320    1.008    Y    Y      Y    6-31g**
  H108      1.597  1.150  0.320    1.008    Y    Y      Y    6-31g**
  H109      1.597  1.150  0.320    1.008    Y    Y      Y    6-31g**
  H110      1.597  1.150  0.320    1.008    Y    Y      Y    6-31g**
  H111      1.597  1.150  0.320    1.008    Y    Y      Y    6-31g**
  H112      1.597  1.150  0.320    1.008    Y    Y      Y    6-31g**
  H113      1.597  1.150  0.320    1.008    Y    Y      Y    6-31g**
  H114      1.597  1.150  0.320    1.008    Y    Y      Y    6-31g**
  H115      1.597  1.150  0.320    1.008    Y    Y      Y    6-31g**
  H116      1.597  1.150  0.320    1.008    Y    Y      Y    6-31g**
  H117      1.597  1.150  0.320    1.008    Y    Y      Y    6-31g**
  H118      1.597  1.150  0.320    1.008    Y    Y      Y    6-31g**
  H119      1.597  1.150  0.320    1.008    Y    Y      Y    6-31g**
  H120      1.597  1.150  0.320    1.008    Y    Y      Y    6-31g**
  H121      1.597  1.150  0.320    1.008    Y    Y      Y    6-31g**
  H122      1.597  1.150  0.320    1.008    Y    Y      Y    6-31g**
  H123      1.597  1.150  0.320    1.008    Y    Y      Y    6-31g**
  H124      1.597  1.150  0.320    1.008    Y    Y      Y    6-31g**
  H125      1.597  1.150  0.320    1.008    Y    Y      Y    6-31g**
  H126      1.597  1.150  0.320    1.008    Y    Y      Y    6-31g**
  H127      1.597  1.150  0.320    1.008    Y    Y      Y    6-31g**
  H128      1.597  1.150  0.320    1.008    Y    Y      Y    6-31g**
  H129      1.597  1.150  0.320    1.008    Y    Y      Y    6-31g**
  H130      1.597  1.150  0.320    1.008    Y    Y      Y    6-31g**
  H131      1.597  1.150  0.320    1.008    Y    Y      Y    6-31g**
  H132      1.597  1.150  0.320    1.008    Y    Y      Y    6-31g**
  H133      1.597  1.150  0.320    1.008    Y    Y      Y    6-31g**
  H134      1.597  1.150  0.320    1.008    Y    Y      Y    6-31g**
  H135      1.597  1.150  0.320    1.008    Y    Y      Y    6-31g**
  H136      1.597  1.150  0.320    1.008    Y    Y      Y    6-31g**
  H137      1.597  1.150  0.320    1.008    Y    Y      Y    6-31g**
  H138      1.597  1.150  0.320    1.008    Y    Y      Y    6-31g**
  H139      1.597  1.150  0.320    1.008    Y    Y      Y    6-31g**
  H140      1.597  1.150  0.320    1.008    Y    Y      Y    6-31g**
  H141      1.597  1.150  0.320    1.008    Y    Y      Y    6-31g**
  
  Peak memory usage:    526 Mb
  
  end of program pre
   
 Time(pre)  user:        0.0  user+sys:        0.0  wallclock:        0.3
  
  start of program onee
  
  smallest eigenvalue of S:    2.242E-04
  number of canonical orbitals.....         1564
  Peak memory usage:    700 Mb
  
  end of program onee
   
 Time(onee)  user:       22.0  user+sys:       23.0  wallclock:       24.3
  
  start of program hfig
  
  initial wavefunction generated automatically from atomic wavefunctions
 
  Irreducible     Total no   No of occupied orbitals 
  representation  orbitals   Shell_1  Shell_2    ...
  No Symm         1564        308
  ------------------------
  Orbital occupation/shell    1.000
 
  Peak memory usage:    639 Mb
  
  end of program hfig
   
 Time(hfig)  user:       29.0  user+sys:       29.0  wallclock:       30.5
  
  start of program probe
  
  Peak memory usage:    633 Mb
  
  end of program probe
   
 Time(probe)  user:       25.0  user+sys:       25.0  wallclock:       26.7
  
  start of program grid
  
  
   grid     grid set  grid #  grid sym
  ------    --------  ------  --------
  coarse        0        0        1
  medium        2        1        1
  fine          0        0        1
  ultrafine     4        2        1
  charge       -1        3        1
  gradient      4        2        1
  density       0        0        1
  DFT-fine    -13        4        1
  DFT-med.    -13        4        1
  DFT-grad    -13        4        1
  DFT-der2      0        0        1
  DFT-cphf      0        0        1
  LMP2-enrg     4        2        1
  LMP2-grad     2        1        1
  DFT-cphf2     0        0        1
  PBF-dens      0        0        1
  plotting      0        0        1
  
   
  number of gridpoints: 
     atom        C1       C2       C3       C4       C5       C6       C7
  grid # 1       97      101       94      102      100       96       92
  grid # 2      338      360      336      367      357      336      335
  grid # 3       34       30       43       49       16       46       21
  grid # 4    14816    14816    14816    14816    14816    14816    14816
   
  number of gridpoints: 
     atom        C8       C9      C10      C11      O12     Si13      C14
  grid # 1       94       97      100      101      113      474      102
  grid # 2      336      357      353      356      444      474      357
  grid # 3       49       16       12        7       59       12       29
  grid # 4    14816    14816    14816    14816    23902    22912    14816
   
  number of gridpoints: 
     atom       C15      C16      C17      C18      C19      C20     Si21
  grid # 1       97      101       97       93       98      100      471
  grid # 2      358      366      338      330      339      361      471
  grid # 3       25       40       30       17       45       11        8
  grid # 4    14816    14816    14816    14816    14816    14816    22912
   
  number of gridpoints: 
     atom       O22      C23      C24      P25      O26      O27      C28
  grid # 1      112       95       94      446      118      113       98
  grid # 2      443      339      338      446      446      425      360
  grid # 3       65       41       47        8       60       32       10
  grid # 4    23902    14816    14816    23204    23902    23902    14816
   
  number of gridpoints: 
     atom       C29      C30      C31      C32      C33      C34      C35
  grid # 1      101      100      101      101      100       92       94
  grid # 2      357      360      356      360      360      333      331
  grid # 3       19       14       11       17       18       16       12
  grid # 4    14816    14816    14816    14816    14816    14816    14816
   
  number of gridpoints: 
     atom       C36      C37      C38      C39      C40      C41      C42
  grid # 1       93       96       93       95       92       97       93
  grid # 2      336      339      334      334      331      334      338
  grid # 3       27       28       28       23        8       22       38
  grid # 4    14816    14816    14816    14816    14816    14816    14816
   
  number of gridpoints: 
     atom       C43      C44      C45      C46      C47      C48      C49
  grid # 1       95       93       94       93       93       93       94
  grid # 2      334      335      332      333      332      334      336
  grid # 3       21       34       22       26       25       22       41
  grid # 4    14816    14816    14816    14816    14816    14816    14816
   
  number of gridpoints: 
     atom       C50      C51      C52      C53      C54      C55      C56
  grid # 1       94       94       93       93       93       93       93
  grid # 2      336      336      332      332      333      332      333
  grid # 3       44       43       28       29       29       21       27
  grid # 4    14816    14816    14816    14816    14816    14816    14816
   
  number of gridpoints: 
     atom       C57      C58      C59      C60      C61      C62      C63
  grid # 1       93       94       94       94       94       94       94
  grid # 2      334      336      336      336      336      336      335
  grid # 3       28       45       46       41       41       42       37
  grid # 4    14816    14816    14816    14816    14816    14816    14816
   
  number of gridpoints: 
     atom       C64      C65      C66      C67      C68      C69      C70
  grid # 1       96       95      100       95       95       95       91
  grid # 2      332      334      360      333      332      332      323
  grid # 3       37       27       21       19       26       36        6
  grid # 4    14816    14816    14816    14816    14816    14816    14816
   
  number of gridpoints: 
     atom       N71      S72      O73      O74      C75      C76      C77
  grid # 1      101      435      120      120       97       96       96
  grid # 2      357      435      487      484      359      328      330
  grid # 3       14       14      168      117       23       30       30
  grid # 4    15000    32664    23902    23902    14816    14816    14816
   
  number of gridpoints: 
     atom       C78      C79      N80      N81      C82      C83      C84
  grid # 1       96       96      112       98       94       93       93
  grid # 2      329      338      418      347      328      327      329
  grid # 3       33       29       88       15       11       15       17
  grid # 4    14816    14816    15000    15000    14816    14816    14816
   
  number of gridpoints: 
     atom       C85      H86      H87      H88      H89      H90      H91
  grid # 1       92      112      118      118      110      118      113
  grid # 2      322      434      452      446      429      453      434
  grid # 3        7      236      420      361      201      424      236
  grid # 4    14816    16416    16416    16416    16416    16416    16416
   
  number of gridpoints: 
     atom       H92      H93      H94      H95      H96      H97      H98
  grid # 1      113      118      118      118       98      111      110
  grid # 2      428      444      449      450      386      428      425
  grid # 3      198      364      409      417       62      198      221
  grid # 4    16416    16416    16416    16416    16416    16416    16416
   
  number of gridpoints: 
     atom       H99     H100     H101     H102     H103     H104     H105
  grid # 1      111      111      109      111      111      113      112
  grid # 2      432      433      413      426      431      423      432
  grid # 3      220      238      140      177      213      187      229
  grid # 4    16416    16416    16416    16416    16416    16416    16416
   
  number of gridpoints: 
     atom      H106     H107     H108     H109     H110     H111     H112
  grid # 1      110      111      105      116      117      117      118
  grid # 2      426      432      404      448      447      450      452
  grid # 3      194      215       49      337      366      382      418
  grid # 4    16416    16416    16416    16416    16416    16416    16416
   
  number of gridpoints: 
     atom      H113     H114     H115     H116     H117     H118     H119
  grid # 1      118      118      113      117      117      116      115
  grid # 2      453      453      440      447      451      445      443
  grid # 3      424      423      289      355      390      341      297
  grid # 4    16416    16416    16416    16416    16416    16416    16416
   
  number of gridpoints: 
     atom      H120     H121     H122     H123     H124     H125     H126
  grid # 1      111      118      118      118      118      118      116
  grid # 2      429      453      453      452      452      451      445
  grid # 3      182      419      425      418      418      403      307
  grid # 4    16416    16416    16416    16416    16416    16416    16416
   
  number of gridpoints: 
     atom      H127     H128     H129     H130     H131     H132     H133
  grid # 1      118      111      102      109      118      103      113
  grid # 2      450      433      405      422      449      413      443
  grid # 3      411      249       76      153      401      116      316
  grid # 4    16416    16416    16416    16416    16416    16416    16416
   
  number of gridpoints: 
     atom      H134     H135     H136     H137     H138     H139     H140
  grid # 1      117      117      117      101      112      116      116
  grid # 2      453      452      451      393      440      459      451
  grid # 3      424      417      400       75      264      414      352
  grid # 4    16416    16416    16416    16416    16416    16416    16416
   
  number of gridpoints: 
     atom      H141    total
  grid # 1      103    16066
  grid # 2      412    54652
  grid # 3       84    18973
  grid # 4    16416  2276152
   
  Peak memory usage:    666 Mb
  
  end of program grid
   
 Time(grid)  user:      328.0  user+sys:      329.0  wallclock:      335.5
  
  start of program rwr
  
  Peak memory usage:    648 Mb
  
  end of program rwr
   
 Time(rwr)  user:       55.0  user+sys:       59.0  wallclock:       60.2
  
  start of program scf
  
 number of electrons..........        616
 number of alpha electrons....        308
 number of beta electrons.....        308
 number of orbitals, total....       1564
 number of doubly-occ'd orbs..        308
 number of open shell orbs....          0
 number of occupied orbitals..        308
 number of virtual orbitals...       1256
 number of hamiltonians.......          1
 number of shells.............          1
 SCF type: DFT=Becke_3_Parameter/HF+Slater+Becke88+VWN+LYP (B3LYP)
  
       i  u  d  i  g                   
       t  p  i  c  r                                 RMS    maximum
       e  d  i  u  i                       energy  density   DIIS  
       r  t  s  t  d       total energy    change  change    error 
  
etot    1  N  N  1  U   -4700.94739435189           2.9E-03  1.4E-01
etot    2  N  Y  1  U   -4700.41180940765 -5.4E-01  4.8E-03  1.4E-01
etot    3  N  Y  1  U   -4629.77410529071 -7.1E+01  1.3E-02  2.5E-01
etot    4  N  Y  1  U   -4625.28283628436 -4.5E+00  1.3E-02  2.3E-01
etot    5  N  Y  1  U   -4710.65160484189  8.5E+01  1.4E-03  5.1E-02
etot    6  N  Y  1  U   -4710.33381829034 -3.2E-01  9.3E-04  4.4E-02
etot    7  N  Y  1  U   -4711.43309109975  1.1E+00  2.9E-04  1.1E-02
etot    8  N  Y  1  U   -4711.49477627681  6.2E-02  1.3E-04  6.8E-03
etot    9  N  Y  1  U   -4711.51839274130  2.4E-02  5.3E-05  4.3E-03
etot   10  N  Y  1  U   -4711.52358135588  5.2E-03  4.0E-05  2.1E-03
etot   11  N  Y  1  U   -4711.52535986380  1.8E-03  2.4E-05  1.3E-03
etot   12  N  Y  1  U   -4711.52598894501  6.3E-04  1.2E-05  5.7E-04
etot   13  N  Y  1  U   -4711.52610664513  1.2E-04  4.2E-06  2.8E-04
etot   14  N  N  1  U   -4711.52612870143  2.2E-05  0.0E+00  0.0E+00
  
  
 Energy components, in hartrees:
   (A)  Nuclear repulsion............   17272.05467460226
   (E)  Total one-electron terms.....  -40887.70818556674
   (F)    Electron-nuclear...........  -45562.06656218573
   (H)    Kinetic....................    4674.35837661900
   (I)  Total two-electron terms.....   18904.12738226305
   (J)    Coulomb....................   19479.24315059734
   (K)    Exchange+Correlation.......    -575.11576833429
   (L)  Electronic energy............  -21983.58080330369  (E+I)
   (M)  -V/T.........................       2.00795141260  (-(A+F+I)/H)
   (N)  Total energy.................   -4711.52612870143  (A+L)
  
 SCFE: SCF energy: DFT(b3lyp)     -4711.52612870143 hartrees   iterations:  14
  
 
 HOMO energy:    -0.19851
 LUMO energy:    -0.08723
 
  Orbital energies (hartrees): 
   -89.11342   -77.21419   -66.10705   -66.10451   -19.17470   -19.17133
   -19.14648   -19.14540   -19.09458   -19.09201   -14.37887   -14.36590
   -14.36261   -10.27848   -10.26627   -10.25169   -10.24590   -10.24518
   -10.24502   -10.23457   -10.23082   -10.22736   -10.22669   -10.21066
   -10.20832   -10.20402   -10.20150   -10.20070   -10.19945   -10.19750
   -10.19660   -10.19537   -10.19482   -10.19235   -10.19158   -10.19114
   -10.18984   -10.18636   -10.18553   -10.18484   -10.18435   -10.18406
   -10.18396   -10.18385   -10.18362   -10.18320   -10.18313   -10.18305
   -10.18305   -10.18270   -10.18267   -10.18245   -10.18215   -10.18192
   -10.18186   -10.18177   -10.18170   -10.18126   -10.18099   -10.18097
   -10.18003   -10.17949   -10.17884   -10.17799   -10.17769   -10.17675
   -10.17580   -10.17533   -10.17500   -10.17366   -10.17282   -10.17124
   -10.17062   -10.17021   -10.16998   -10.16974   -10.16884   -10.16808
   -10.16763   -10.16704   -10.16565   -10.16333   -10.16314   -10.15922
   -10.15737    -8.13885    -6.65837    -6.10389    -6.10296    -6.10182
    -5.25366    -5.25109    -4.82332    -4.82183    -4.81998    -3.61263
    -3.61225    -3.61206    -3.61017    -3.60970    -3.60938    -1.11360
    -1.08354    -1.04027    -1.00434    -0.99079    -0.97536    -0.96886
    -0.94148    -0.92309    -0.86640    -0.86266    -0.85352    -0.83713
    -0.83499    -0.83327    -0.83193    -0.83075    -0.82589    -0.82296
    -0.81040    -0.80128    -0.79950    -0.79167    -0.78181    -0.77693
    -0.75271    -0.74825    -0.74302    -0.74061    -0.73920    -0.73702
    -0.73428    -0.73275    -0.73246    -0.72881    -0.72789    -0.72710
    -0.72565    -0.72462    -0.72345    -0.72198    -0.72122    -0.71831
    -0.70543    -0.69900    -0.66917    -0.65905    -0.64014    -0.62555
    -0.61653    -0.60908    -0.60865    -0.60548    -0.60038    -0.59612
    -0.59269    -0.59247    -0.59172    -0.58728    -0.58610    -0.58516
    -0.58463    -0.58417    -0.58055    -0.57739    -0.57664    -0.57431
    -0.57280    -0.57092    -0.57000    -0.56383    -0.55943    -0.55373
    -0.53732    -0.53434    -0.52606    -0.52428    -0.52041    -0.51275
    -0.50722    -0.50152    -0.50027    -0.49887    -0.49659    -0.49550
    -0.49329    -0.49244    -0.49075    -0.48022    -0.47191    -0.47093
    -0.46676    -0.46432    -0.46179    -0.45836    -0.45278    -0.45147
    -0.44870    -0.44701    -0.44432    -0.44390    -0.44184    -0.44021
    -0.43878    -0.43757    -0.43554    -0.43367    -0.43181    -0.43151
    -0.43037    -0.43003    -0.42852    -0.42751    -0.42709    -0.42511
    -0.42247    -0.42149    -0.42083    -0.41988    -0.41839    -0.41770
    -0.41494    -0.41405    -0.41164    -0.40996    -0.40972    -0.40862
    -0.40806    -0.40570    -0.40526    -0.40317    -0.40191    -0.40010
    -0.39474    -0.38750    -0.38335    -0.38090    -0.38001    -0.37754
    -0.37316    -0.37222    -0.37050    -0.36583    -0.36320    -0.35958
    -0.35721    -0.35501    -0.35177    -0.35034    -0.35002    -0.34714
    -0.34649    -0.34490    -0.34261    -0.33951    -0.33861    -0.33388
    -0.33274    -0.33234    -0.33087    -0.32964    -0.32802    -0.32758
    -0.32525    -0.32246    -0.32121    -0.31961    -0.31884    -0.31430
    -0.31201    -0.31182    -0.30753    -0.30712    -0.30227    -0.29666
    -0.28894    -0.28803    -0.28774    -0.28306    -0.28180    -0.28072
    -0.27904    -0.27903    -0.27588    -0.27424    -0.27044    -0.26288
    -0.25850    -0.25615    -0.25402    -0.24430    -0.24404    -0.24329
    -0.24151    -0.24120    -0.23934    -0.23595    -0.23429    -0.23177
    -0.23144    -0.22997    -0.22876    -0.22836    -0.22653    -0.22314
    -0.21316    -0.19851    -0.08723    -0.05504    -0.04130    -0.03947
    -0.02191    -0.01136    -0.00911    -0.00857    -0.00694    -0.00436
 
  Peak memory usage:    843 Mb
  
  end of program scf
   
 Time(scf)  user:     9154.0  user+sys:     9255.0  wallclock:    14692.7
  
  start of program ch
  
  gridpoints used for charge fit        16493
    out of a possible maximum of        18973
  
   Electrostatic potential fitting constrained to reproduce
     total charge:                yes
     dipole moment:               no 
     traceless quadrupole moment: no 
     traceless octapole moment:   no 
  
  Atomic charges from electrostatic potential: 
   
 Atom       C1           C2           C3           C4           C5      
 Charge   -0.09008     -0.02800     -0.17207      0.19668      0.03067
   
 Atom       C6           C7           C8           C9           C10     
 Charge   -0.21263     -0.35715     -0.08767      0.04267     -0.15462
   
 Atom       C11          O12          Si13         C14          C15     
 Charge    0.14699     -0.27724     -0.07582      0.09430      0.22659
   
 Atom       C16          C17          C18          C19          C20     
 Charge    0.25461     -0.13715     -0.45375     -0.24826      0.03963
   
 Atom       Si21         O22          C23          C24          P25     
 Charge    0.09429     -0.30194     -0.16727     -0.08142      1.05526
   
 Atom       O26          O27          C28          C29          C30     
 Charge   -0.60765     -0.73198      0.06911      0.21940     -0.09433
   
 Atom       C31          C32          C33          C34          C35     
 Charge    0.05738     -0.07303     -0.03311     -0.06351     -0.17432
   
 Atom       C36          C37          C38          C39          C40     
 Charge   -0.19793     -0.22675      0.01014     -0.04800      0.00147
   
 Atom       C41          C42          C43          C44          C45     
 Charge   -0.13291     -0.01645     -0.08682     -0.06745     -0.03108
   
 Atom       C46          C47          C48          C49          C50     
 Charge   -0.13249     -0.14573     -0.07506     -0.09724     -0.15289
   
 Atom       C51          C52          C53          C54          C55     
 Charge   -0.08703     -0.16882     -0.05260     -0.16407     -0.23337
   
 Atom       C56          C57          C58          C59          C60     
 Charge   -0.03608     -0.17618     -0.17637     -0.08687     -0.14032
   
 Atom       C61          C62          C63          C64          C65     
 Charge   -0.17812     -0.08590     -0.13911     -0.07665     -0.26022
   
 Atom       C66          C67          C68          C69          C70     
 Charge    0.42581     -0.25353      0.00191     -0.18839     -0.48673
   
 Atom       N71          S72          O73          O74          C75     
 Charge   -0.17028      0.65219     -0.42616     -0.39774      0.41550
   
 Atom       C76          C77          C78          C79          N80     
 Charge   -0.31951      0.13301     -0.37037      0.34775     -0.50855
   
 Atom       N81          C82          C83          C84          C85     
 Charge   -0.06375     -0.00674     -0.20899     -0.18813      0.01907
   
 Atom       H86          H87          H88          H89          H90     
 Charge    0.10457      0.13040      0.12878      0.16674      0.11420
   
 Atom       H91          H92          H93          H94          H95     
 Charge    0.12031      0.20354      0.13753      0.12924      0.11158
   
 Atom       H96          H97          H98          H99          H100    
 Charge    0.37223      0.08874      0.13601      0.11270      0.11882
   
 Atom       H101         H102         H103         H104         H105    
 Charge    0.02193      0.10697      0.07592      0.14375      0.05751
   
 Atom       H106         H107         H108         H109         H110    
 Charge    0.11707      0.09004      0.02340      0.12470      0.11254
   
 Atom       H111         H112         H113         H114         H115    
 Charge    0.09338      0.11436      0.12135      0.11334      0.11369
   
 Atom       H116         H117         H118         H119         H120    
 Charge    0.10307      0.12068      0.12881      0.08888      0.09771
   
 Atom       H121         H122         H123         H124         H125    
 Charge    0.12548      0.11014      0.11374      0.12567      0.10767
   
 Atom       H126         H127         H128         H129         H130    
 Charge    0.10234      0.11678      0.15098      0.18844      0.08736
   
 Atom       H131         H132         H133         H134         H135    
 Charge    0.13250      0.22179      0.16578      0.09978      0.16668
   
 Atom       H136         H137         H138         H139         H140    
 Charge    0.04762      0.26777      0.14850      0.15755      0.17023
   
 Atom       H141    
 Charge    0.19864
  
  sum of atomic charges:     0.000000
   
 RMS Error   9.36E-04 hartrees
 
  Peak memory usage:    584 Mb
  
  end of program ch
   
 Time(ch)  user:       17.0  user+sys:       17.0  wallclock:       31.0
  
  start of program post
  
  Writing input files for PBF
  Peak memory usage:    534 Mb
  
  end of program post
   
 Time(post)  user:        0.0  user+sys:        0.0  wallclock:        0.6

  start of program pbf

Pbf Version 4.00

Molecular surface area:      842.53725   [A2]
Reaction field energy:       -13.82523   [kT]
  Peak memory usage: 557 Mb

  end of program pbf

 Time(pbf)  user:       15.3  user+sys:       15.3  wallclock:       30.6
  
  start of program solv
  
   number of surface charges from PBF   13442
   sum of surface charges     -0.00042
   
  nuclear repulsion energy.......   17272.054674602 hartrees
  Peak memory usage:    694 Mb
  
  end of program solv
   
 Time(solv)  user:       35.0  user+sys:       35.0  wallclock:       42.9
  
  start of program scf
  
  
       i  u  d  i  g                   
       t  p  i  c  r                                 RMS    maximum
       e  d  i  u  i                       energy  density   DIIS  
       r  t  s  t  d       total energy    change  change    error 
  
etot    1  N  N  1  U   -4711.55585051120           5.6E-05  1.1E-03
etot    2  N  Y  1  U   -4711.55619298702  3.4E-04  2.2E-05  1.6E-03
etot    3  N  Y  1  U   -4711.55655523358  3.6E-04  8.2E-06  7.8E-04
etot    4  N  Y  1  U   -4711.55664440956  8.9E-05  3.6E-06  1.6E-04
etot    5  N  N  1  U   -4711.55665808345  1.4E-05  0.0E+00  0.0E+00
  
  
 Energy components, in hartrees:
   (A)  Total zero-electron terms....   17274.43450469854
   (B)    Nuclear-nuclear............   17272.05467460226
   (C)    Nuclear-solvent............       2.37983009628
   (E)  Total one-electron terms.....  -40891.43170890925
   (F)    Electron-nuclear...........  -45563.42292828023
   (G)    Electron-solvent...........      -2.41116268646
   (H)    Kinetic....................    4674.40238205743
   (I)  Total two-electron terms.....   18905.44054612727
   (J)    Coulomb....................   19480.57252977922
   (K)    Exchange+Correlation.......    -575.13198365195
   (L)  Electronic energy............  -21985.99116278199  (E+I)
   (N)  Total quantum mech. energy...   -4711.55665808345  (A+L)
   (O)  Gas phase energy.............   -4711.52612870143
   (P)  Solution phase energy........   -4711.54099178836  (Q+R+S)
   (Q)    Total solute energy........   -4711.52532549327  (N-C-G)
   (R)    Total solvent energy.......      -0.01566629509  (C/2+G/2)
   (S)    Solute cavity energy.......       0.00000000000
   (U)  Reorganization energy........       0.00080320816  (Q-O)
   (V)  Solvation energy.............      -0.01486308692  (P-O)
  
 SCFE:  Solution phase energy: DFT(b3lyp)      -4711.54099178836 hartrees
        SCF iterations:   5
  
 
 HOMO energy:    -0.20188
 LUMO energy:    -0.08567
 
  Orbital energies (hartrees): 
   -89.11522   -77.21702   -66.11059   -66.10855   -19.17788   -19.17483
   -19.14833   -19.14447   -19.09695   -19.09438   -14.37743   -14.36707
   -14.35957   -10.27854   -10.26275   -10.24916   -10.24860   -10.24550
   -10.24277   -10.22958   -10.22782   -10.22201   -10.21964   -10.20995
   -10.20530   -10.20163   -10.20152   -10.19978   -10.19765   -10.19765
   -10.19625   -10.19624   -10.19579   -10.19426   -10.19375   -10.19345
   -10.19313   -10.18907   -10.18892   -10.18789   -10.18699   -10.18651
   -10.18630   -10.18630   -10.18618   -10.18610   -10.18594   -10.18591
   -10.18587   -10.18548   -10.18535   -10.18528   -10.18480   -10.18471
   -10.18469   -10.18457   -10.18445   -10.18379   -10.18361   -10.18349
   -10.18275   -10.18248   -10.18211   -10.18065   -10.18024   -10.17956
   -10.17935   -10.17887   -10.17795   -10.17776   -10.17732   -10.17497
   -10.17486   -10.17369   -10.17321   -10.17288   -10.17249   -10.17147
   -10.17114   -10.17022   -10.16783   -10.16774   -10.16608   -10.16380
   -10.16104    -8.14051    -6.66121    -6.10556    -6.10470    -6.10341
    -5.25716    -5.25508    -4.82617    -4.82467    -4.82281    -3.61612
    -3.61575    -3.61559    -3.61416    -3.61370    -3.61337    -1.11501
    -1.08687    -1.04375    -1.00592    -0.98933    -0.97169    -0.97104
    -0.94247    -0.92521    -0.86994    -0.86099    -0.85694    -0.84060
    -0.83854    -0.83568    -0.83504    -0.83059    -0.82648    -0.82487
    -0.81381    -0.80444    -0.79548    -0.78908    -0.78517    -0.77505
    -0.75149    -0.75078    -0.74613    -0.74318    -0.74029    -0.73820
    -0.73749    -0.73535    -0.73487    -0.73228    -0.73108    -0.73020
    -0.72899    -0.72818    -0.72680    -0.72602    -0.72466    -0.72178
    -0.70371    -0.70216    -0.66660    -0.65317    -0.64303    -0.62377
    -0.61911    -0.61183    -0.60880    -0.60646    -0.60268    -0.59603
    -0.59536    -0.59469    -0.59103    -0.59022    -0.58881    -0.58779
    -0.58694    -0.58362    -0.58154    -0.58036    -0.57966    -0.57741
    -0.57637    -0.57359    -0.57217    -0.56206    -0.56131    -0.55283
    -0.53771    -0.53511    -0.52882    -0.52341    -0.52140    -0.51566
    -0.50407    -0.50288    -0.50278    -0.50133    -0.49904    -0.49636
    -0.49508    -0.49337    -0.49047    -0.48303    -0.47197    -0.46928
    -0.46591    -0.46533    -0.46301    -0.45989    -0.45362    -0.45065
    -0.44945    -0.44851    -0.44617    -0.44475    -0.44416    -0.44202
    -0.44037    -0.43833    -0.43749    -0.43478    -0.43458    -0.43360
    -0.43282    -0.43193    -0.43011    -0.42707    -0.42608    -0.42509
    -0.42341    -0.42314    -0.42204    -0.42145    -0.42087    -0.41954
    -0.41780    -0.41667    -0.41431    -0.41294    -0.41208    -0.40934
    -0.40822    -0.40668    -0.40445    -0.40252    -0.40147    -0.39787
    -0.39672    -0.39037    -0.38619    -0.38330    -0.38294    -0.38060
    -0.37633    -0.37408    -0.37063    -0.36829    -0.36365    -0.36067
    -0.35855    -0.35696    -0.35576    -0.35384    -0.35128    -0.35043
    -0.34904    -0.34650    -0.34526    -0.34210    -0.34093    -0.33694
    -0.33539    -0.33511    -0.33260    -0.33203    -0.33088    -0.32931
    -0.32624    -0.32623    -0.32405    -0.32167    -0.31949    -0.31680
    -0.31490    -0.31090    -0.31054    -0.30574    -0.30409    -0.29994
    -0.29217    -0.29113    -0.28730    -0.28542    -0.28392    -0.28327
    -0.28224    -0.27904    -0.27726    -0.27452    -0.27126    -0.26642
    -0.25928    -0.25691    -0.25297    -0.24810    -0.24732    -0.24701
    -0.24612    -0.24417    -0.24266    -0.23816    -0.23695    -0.23573
    -0.23435    -0.23370    -0.23280    -0.23042    -0.23003    -0.22705
    -0.21692    -0.20188    -0.08567    -0.05071    -0.04273    -0.03617
    -0.02585    -0.01272    -0.01250    -0.01060    -0.00977    -0.00626
 
  Peak memory usage:    839 Mb
  
  end of program scf
   
 Time(scf)  user:     2702.0  user+sys:     2731.0  wallclock:     4311.2
  
  start of program sole
  
    SCRF                   solvation energy
  iteration          Hartrees            kcal/mol
     0               0.0000000            0.0000
     1              -0.0148631           -9.3267
  
  solvation energy not yet converged... 
  
  Peak memory usage:    634 Mb
  
  end of program sole
   
 Time(sole)  user:        0.0  user+sys:        0.0  wallclock:        0.4
  
  start of program ch
  
  gridpoints used for charge fit        16493
    out of a possible maximum of        16493
  
   Electrostatic potential fitting constrained to reproduce
     total charge:                yes
     dipole moment:               no 
     traceless quadrupole moment: no 
     traceless octapole moment:   no 
  
  Atomic charges from electrostatic potential: 
   
 Atom       C1           C2           C3           C4           C5      
 Charge   -0.08794     -0.03187     -0.18253      0.20303      0.03227
   
 Atom       C6           C7           C8           C9           C10     
 Charge   -0.22239     -0.38217     -0.09316      0.02719     -0.15639
   
 Atom       C11          O12          Si13         C14          C15     
 Charge    0.17744     -0.26305     -0.09692      0.09549      0.21883
   
 Atom       C16          C17          C18          C19          C20     
 Charge    0.26107     -0.13611     -0.47166     -0.25781      0.05563
   
 Atom       Si21         O22          C23          C24          P25     
 Charge    0.08856     -0.29051     -0.17678     -0.08600      1.03490
   
 Atom       O26          O27          C28          C29          C30     
 Charge   -0.60189     -0.72745      0.08345      0.21639     -0.08745
   
 Atom       C31          C32          C33          C34          C35     
 Charge    0.06046     -0.07958     -0.04062     -0.07454     -0.17944
   
 Atom       C36          C37          C38          C39          C40     
 Charge   -0.20133     -0.22615      0.00438     -0.05534      0.00477
   
 Atom       C41          C42          C43          C44          C45     
 Charge   -0.14704     -0.01524     -0.08923     -0.07273     -0.02143
   
 Atom       C46          C47          C48          C49          C50     
 Charge   -0.13694     -0.15837     -0.07440     -0.10347     -0.16014
   
 Atom       C51          C52          C53          C54          C55     
 Charge   -0.09549     -0.17513     -0.06108     -0.16872     -0.24437
   
 Atom       C56          C57          C58          C59          C60     
 Charge   -0.04053     -0.17549     -0.18629     -0.09149     -0.14687
   
 Atom       C61          C62          C63          C64          C65     
 Charge   -0.18514     -0.09319     -0.14779     -0.07626     -0.27422
   
 Atom       C66          C67          C68          C69          C70     
 Charge    0.45328     -0.27779      0.00819     -0.19895     -0.51380
   
 Atom       N71          S72          O73          O74          C75     
 Charge   -0.13957      0.66931     -0.44732     -0.40426      0.40829
   
 Atom       C76          C77          C78          C79          N80     
 Charge   -0.31968      0.14134     -0.37827      0.35862     -0.52976
   
 Atom       N81          C82          C83          C84          C85     
 Charge   -0.05756     -0.01637     -0.20118     -0.20183      0.02162
   
 Atom       H86          H87          H88          H89          H90     
 Charge    0.10462      0.13848      0.13505      0.17548      0.12187
   
 Atom       H91          H92          H93          H94          H95     
 Charge    0.12238      0.21222      0.14430      0.13655      0.11858
   
 Atom       H96          H97          H98          H99          H100    
 Charge    0.35071      0.08861      0.13936      0.11529      0.11829
   
 Atom       H101         H102         H103         H104         H105    
 Charge    0.02547      0.11168      0.07847      0.14828      0.05706
   
 Atom       H106         H107         H108         H109         H110    
 Charge    0.12197      0.09367      0.01640      0.13076      0.12145
   
 Atom       H111         H112         H113         H114         H115    
 Charge    0.09761      0.12153      0.12871      0.12096      0.11637
   
 Atom       H116         H117         H118         H119         H120    
 Charge    0.10877      0.12806      0.13632      0.09549      0.09822
   
 Atom       H121         H122         H123         H124         H125    
 Charge    0.13323      0.11717      0.12061      0.13239      0.11460
   
 Atom       H126         H127         H128         H129         H130    
 Charge    0.10568      0.12266      0.16024      0.20591      0.08774
   
 Atom       H131         H132         H133         H134         H135    
 Charge    0.13890      0.22690      0.16900      0.10771      0.17559
   
 Atom       H136         H137         H138         H139         H140    
 Charge    0.05213      0.26224      0.15518      0.16222      0.18103
   
 Atom       H141    
 Charge    0.20177
  
  sum of atomic charges:     0.000000
   
 RMS Error   9.56E-04 hartrees
 
  Peak memory usage:    583 Mb
  
  end of program ch
   
 Time(ch)  user:       17.0  user+sys:       17.0  wallclock:       36.9
  
  start of program post
  
  Writing input files for PBF
  Peak memory usage:    534 Mb
  
  end of program post
   
 Time(post)  user:        0.0  user+sys:        0.0  wallclock:        0.4

  start of program pbf

Pbf Version 4.00

Molecular surface area:      842.53725   [A2]
Reaction field energy:       -15.70278   [kT]
  Peak memory usage: 557 Mb

  end of program pbf

 Time(pbf)  user:       20.4  user+sys:       20.5  wallclock:       41.7
  
  start of program solv
  
   number of surface charges from PBF   13442
   sum of surface charges     -0.00045
   
  nuclear repulsion energy.......   17272.054674602 hartrees
  Peak memory usage:    694 Mb
  
  end of program solv
   
 Time(solv)  user:       38.0  user+sys:       38.0  wallclock:       74.8
  
  start of program scf
  
  
       i  u  d  i  g                   
       t  p  i  c  r                                 RMS    maximum
       e  d  i  u  i                       energy  density   DIIS  
       r  t  s  t  d       total energy    change  change    error 
  
etot    1  N  N  1  U   -4711.55869992457           7.3E-06  1.4E-04
etot    2  N  N  1  U   -4711.55867834980 -2.2E-05  0.0E+00  0.0E+00
  
  
 Energy components, in hartrees:
   (A)  Total zero-electron terms....   17274.66684945893
   (B)    Nuclear-nuclear............   17272.05467460226
   (C)    Nuclear-solvent............       2.61217485667
   (E)  Total one-electron terms.....  -40892.16206812816
   (F)    Electron-nuclear...........  -45563.93632645662
   (G)    Electron-solvent...........      -2.64582264295
   (H)    Kinetic....................    4674.42008097141
   (I)  Total two-electron terms.....   18905.93654031943
   (J)    Coulomb....................   19481.07123713212
   (K)    Exchange+Correlation.......    -575.13469681269
   (L)  Electronic energy............  -21986.22552780873  (E+I)
   (N)  Total quantum mech. energy...   -4711.55867834980  (A+L)
   (O)  Gas phase energy.............   -4711.52612870143
   (P)  Solution phase energy........   -4711.54185445666  (Q+R+S)
   (Q)    Total solute energy........   -4711.52503056352  (N-C-G)
   (R)    Total solvent energy.......      -0.01682389314  (C/2+G/2)
   (S)    Solute cavity energy.......       0.00000000000
   (U)  Reorganization energy........       0.00109813791  (Q-O)
   (V)  Solvation energy.............      -0.01572575523  (P-O)
  
 SCFE:  Solution phase energy: DFT(b3lyp)      -4711.54185445666 hartrees
        SCF iterations:   2
  
 
 HOMO energy:    -0.21866
 LUMO energy:    -0.08442
 
  Orbital energies (hartrees): 
   -57.57407   -43.40182   -42.57576   -37.01082   -34.04911   -28.63965
   -27.00367   -26.71121   -24.90123   -24.67187   -23.27592   -17.89430
   -14.62841   -13.77259   -13.08452   -12.78791   -12.73369   -12.42103
   -12.02590   -11.60312   -11.18484   -11.08305   -10.98777   -10.98245
   -10.83643   -10.70761   -10.66211   -10.55451   -10.52645   -10.37614
   -10.35078   -10.32716   -10.30917   -10.24940   -10.24528   -10.24487
   -10.22352   -10.22160   -10.21836   -10.21366   -10.17111   -10.15704
   -10.14234   -10.13986   -10.13374   -10.12692   -10.12614   -10.12311
   -10.12305   -10.11160   -10.11077   -10.10757   -10.09223   -10.08962
   -10.08766   -10.07592   -10.07465   -10.06860   -10.06200   -10.04083
   -10.03745   -10.01684   -10.01512   -10.01362   -10.01195   -10.00486
    -9.98739    -9.98107    -9.97344    -9.95319    -9.94041    -9.91058
    -9.89946    -9.89833    -9.86917    -9.82397    -9.82237    -9.78100
    -9.75622    -9.73306    -9.72486    -9.70047    -9.66778    -9.48099
    -9.41562    -9.22172    -8.93353    -8.88662    -8.76866    -8.46214
    -8.27528    -8.09968    -8.06058    -7.90220    -7.24132    -7.12072
    -6.52369    -6.20531    -5.83082    -5.48380    -4.18284    -1.06724
    -1.02151    -0.96689    -0.95660    -0.88224    -0.85655    -0.83520
    -0.83078    -0.81493    -0.80857    -0.79854    -0.79337    -0.78898
    -0.78327    -0.77523    -0.76030    -0.75865    -0.75258    -0.75083
    -0.74930    -0.74717    -0.73811    -0.73489    -0.72473    -0.72471
    -0.72304    -0.71538    -0.71489    -0.70340    -0.70296    -0.70295
    -0.70241    -0.70138    -0.69664    -0.68654    -0.68347    -0.68092
    -0.67723    -0.67264    -0.65487    -0.65106    -0.63412    -0.63233
    -0.62874    -0.61962    -0.61571    -0.61482    -0.60721    -0.60517
    -0.60403    -0.59298    -0.58917    -0.58499    -0.58364    -0.58342
    -0.57813    -0.57250    -0.57153    -0.56890    -0.56500    -0.56125
    -0.56091    -0.56012    -0.55541    -0.55448    -0.55315    -0.55268
    -0.55009    -0.54911    -0.54552    -0.54277    -0.54077    -0.54061
    -0.53678    -0.53459    -0.53343    -0.52878    -0.52675    -0.52613
    -0.52579    -0.52262    -0.51895    -0.51448    -0.51190    -0.51139
    -0.50958    -0.50773    -0.50738    -0.50625    -0.50539    -0.50209
    -0.49159    -0.48682    -0.48121    -0.48109    -0.47951    -0.47615
    -0.47289    -0.47177    -0.47047    -0.46731    -0.46395    -0.46308
    -0.46048    -0.46023    -0.45973    -0.45914    -0.45819    -0.45738
    -0.45492    -0.45420    -0.44984    -0.44808    -0.44709    -0.44612
    -0.44584    -0.44332    -0.44189    -0.44166    -0.44050    -0.43996
    -0.43993    -0.43950    -0.43703    -0.43601    -0.43319    -0.43299
    -0.43096    -0.43032    -0.42999    -0.42967    -0.42944    -0.42813
    -0.42799    -0.42684    -0.42269    -0.41961    -0.41639    -0.41432
    -0.41397    -0.41321    -0.41193    -0.40848    -0.40789    -0.40256
    -0.40243    -0.40170    -0.40124    -0.40113    -0.40110    -0.40081
    -0.39813    -0.39775    -0.39623    -0.39568    -0.39443    -0.39401
    -0.39370    -0.39264    -0.39164    -0.39009    -0.39001    -0.38892
    -0.38656    -0.38603    -0.38579    -0.38484    -0.38093    -0.37600
    -0.37534    -0.37495    -0.37165    -0.37019    -0.36611    -0.36303
    -0.36279    -0.36034    -0.35759    -0.35716    -0.35355    -0.35015
    -0.34603    -0.34588    -0.32990    -0.32892    -0.29724    -0.29709
    -0.29215    -0.28931    -0.27676    -0.27069    -0.26598    -0.26508
    -0.26483    -0.25810    -0.25712    -0.25694    -0.25567    -0.25370
    -0.25278    -0.25261    -0.25190    -0.25073    -0.24926    -0.24880
    -0.22439    -0.21866    -0.08442    -0.04940    -0.04261    -0.03505
    -0.02594    -0.01241    -0.01240    -0.01045    -0.00944    -0.00619
 
  Peak memory usage:    839 Mb
  
  end of program scf
   
 Time(scf)  user:      711.0  user+sys:      720.0  wallclock:     1301.2
  
  start of program sole
  
    SCRF                   solvation energy
  iteration          Hartrees            kcal/mol
     0               0.0000000            0.0000
     1              -0.0148631           -9.3267
     2              -0.0157258           -9.8681
  
  solvation energy not yet converged... 
  
  Peak memory usage:    634 Mb
  
  end of program sole
   
 Time(sole)  user:        0.0  user+sys:        0.0  wallclock:        0.3
  
  start of program ch
  
  gridpoints used for charge fit        16493
    out of a possible maximum of        16493
  
   Electrostatic potential fitting constrained to reproduce
     total charge:                yes
     dipole moment:               no 
     traceless quadrupole moment: no 
     traceless octapole moment:   no 
  
  Atomic charges from electrostatic potential: 
   
 Atom       C1           C2           C3           C4           C5      
 Charge   -0.08761     -0.03220     -0.18289      0.20400      0.03265
   
 Atom       C6           C7           C8           C9           C10     
 Charge   -0.22353     -0.38475     -0.09297      0.02447     -0.15651
   
 Atom       C11          O12          Si13         C14          C15     
 Charge    0.17976     -0.26102     -0.09953      0.09683      0.21710
   
 Atom       C16          C17          C18          C19          C20     
 Charge    0.26193     -0.13648     -0.47390     -0.25863      0.05592
   
 Atom       Si21         O22          C23          C24          P25     
 Charge    0.08712     -0.28875     -0.17647     -0.08507      1.03057
   
 Atom       O26          O27          C28          C29          C30     
 Charge   -0.59975     -0.72598      0.08313      0.21449     -0.08622
   
 Atom       C31          C32          C33          C34          C35     
 Charge    0.06056     -0.08130     -0.04292     -0.07581     -0.18079
   
 Atom       C36          C37          C38          C39          C40     
 Charge   -0.20084     -0.22645      0.00208     -0.05714      0.00483
   
 Atom       C41          C42          C43          C44          C45     
 Charge   -0.14963     -0.01505     -0.09012     -0.07258     -0.02199
   
 Atom       C46          C47          C48          C49          C50     
 Charge   -0.13735     -0.15837     -0.07289     -0.10397     -0.15982
   
 Atom       C51          C52          C53          C54          C55     
 Charge   -0.09586     -0.17610     -0.06137     -0.16744     -0.24405
   
 Atom       C56          C57          C58          C59          C60     
 Charge   -0.04113     -0.17436     -0.18688     -0.09082     -0.14672
   
 Atom       C61          C62          C63          C64          C65     
 Charge   -0.18518     -0.09274     -0.14787     -0.07374     -0.27577
   
 Atom       C66          C67          C68          C69          C70     
 Charge    0.45402     -0.28256      0.01001     -0.19769     -0.52068
   
 Atom       N71          S72          O73          O74          C75     
 Charge   -0.13798      0.66530     -0.44740     -0.40061      0.40478
   
 Atom       C76          C77          C78          C79          N80     
 Charge   -0.31888      0.14335     -0.37652      0.35871     -0.53290
   
 Atom       N81          C82          C83          C84          C85     
 Charge   -0.05695     -0.01344     -0.19666     -0.20266      0.02092
   
 Atom       H86          H87          H88          H89          H90     
 Charge    0.10444      0.13924      0.13546      0.17648      0.12264
   
 Atom       H91          H92          H93          H94          H95     
 Charge    0.12256      0.21334      0.14481      0.13701      0.11914
   
 Atom       H96          H97          H98          H99          H100    
 Charge    0.34764      0.08812      0.13940      0.11522      0.11805
   
 Atom       H101         H102         H103         H104         H105    
 Charge    0.02656      0.11232      0.07844      0.14866      0.05678
   
 Atom       H106         H107         H108         H109         H110    
 Charge    0.12239      0.09371      0.01636      0.13136      0.12254
   
 Atom       H111         H112         H113         H114         H115    
 Charge    0.09820      0.12228      0.12944      0.12176      0.11636
   
 Atom       H116         H117         H118         H119         H120    
 Charge    0.10915      0.12879      0.13704      0.09655      0.09824
   
 Atom       H121         H122         H123         H124         H125    
 Charge    0.13393      0.11784      0.12132      0.13289      0.11509
   
 Atom       H126         H127         H128         H129         H130    
 Charge    0.10599      0.12308      0.16143      0.20747      0.08725
   
 Atom       H131         H132         H133         H134         H135    
 Charge    0.13898      0.22766      0.16904      0.10877      0.17661
   
 Atom       H136         H137         H138         H139         H140    
 Charge    0.05284      0.26051      0.15513      0.16217      0.18171
   
 Atom       H141    
 Charge    0.20153
  
  sum of atomic charges:     0.000000
   
 RMS Error   9.57E-04 hartrees
 
  Peak memory usage:    583 Mb
  
  end of program ch
   
 Time(ch)  user:       17.0  user+sys:       17.0  wallclock:       39.2
  
  start of program post
  
  Writing input files for PBF
  Peak memory usage:    534 Mb
  
  end of program post
   
 Time(post)  user:        0.0  user+sys:        0.0  wallclock:        0.4

  start of program pbf

Pbf Version 4.00

Molecular surface area:      842.53725   [A2]
Reaction field energy:       -16.00098   [kT]
  Peak memory usage: 557 Mb

  end of program pbf

 Time(pbf)  user:       15.9  user+sys:       16.0  wallclock:       17.3
  
  start of program solv
  
   number of surface charges from PBF   13442
   sum of surface charges     -0.00045
   
  nuclear repulsion energy.......   17272.054674602 hartrees
  Peak memory usage:    694 Mb
  
  end of program solv
   
 Time(solv)  user:       34.0  user+sys:       34.0  wallclock:       44.5
  
  start of program scf
  
  
       i  u  d  i  g                   
       t  p  i  c  r                                 RMS    maximum
       e  d  i  u  i                       energy  density   DIIS  
       r  t  s  t  d       total energy    change  change    error 
  
etot    1  N  N  1  U   -4711.55898577220           1.3E-05  2.2E-04
etot    2  N  Y  1  U   -4711.55883197329 -1.5E-04  9.3E-06  5.7E-04
etot    3  N  Y  1  U   -4711.55901420641  1.8E-04  4.7E-07  1.3E-05
etot    4  N  N  1  U   -4711.55901423418  2.8E-08  0.0E+00  0.0E+00
  
  
 Energy components, in hartrees:
   (A)  Total zero-electron terms....   17274.73033477212
   (B)    Nuclear-nuclear............   17272.05467460226
   (C)    Nuclear-solvent............       2.67566016987
   (E)  Total one-electron terms.....  -40891.96145142157
   (F)    Electron-nuclear...........  -45563.65789369579
   (G)    Electron-solvent...........      -2.70953601249
   (H)    Kinetic....................    4674.40597828671
   (I)  Total two-electron terms.....   18905.67210241527
   (J)    Coulomb....................   19480.80503802056
   (K)    Exchange+Correlation.......    -575.13293560529
   (L)  Electronic energy............  -21986.28934900630  (E+I)
   (N)  Total quantum mech. energy...   -4711.55901423418  (A+L)
   (O)  Gas phase energy.............   -4711.52612870143
   (P)  Solution phase energy........   -4711.54207631286  (Q+R+S)
   (Q)    Total solute energy........   -4711.52513839155  (N-C-G)
   (R)    Total solvent energy.......      -0.01693792131  (C/2+G/2)
   (S)    Solute cavity energy.......       0.00000000000
   (U)  Reorganization energy........       0.00099030988  (Q-O)
   (V)  Solvation energy.............      -0.01594761143  (P-O)
  
 SCFE:  Solution phase energy: DFT(b3lyp)      -4711.54207631286 hartrees
        SCF iterations:   4
  
 
 HOMO energy:    -0.20213
 LUMO energy:    -0.08523
 
  Orbital energies (hartrees): 
   -89.11471   -77.21708   -66.11062   -66.10882   -19.17805   -19.17499
   -19.14919   -19.14569   -19.09684   -19.09457   -14.37718   -14.36582
   -14.35894   -10.27739   -10.26223   -10.24932   -10.24862   -10.24468
   -10.24299   -10.22921   -10.22681   -10.22145   -10.21861   -10.20900
   -10.20487   -10.20214   -10.20098   -10.20026   -10.19762   -10.19749
   -10.19655   -10.19615   -10.19598   -10.19410   -10.19408   -10.19389
   -10.19300   -10.18955   -10.18887   -10.18812   -10.18716   -10.18691
   -10.18679   -10.18653   -10.18645   -10.18635   -10.18630   -10.18617
   -10.18604   -10.18596   -10.18577   -10.18572   -10.18510   -10.18503
   -10.18502   -10.18477   -10.18433   -10.18426   -10.18395   -10.18378
   -10.18293   -10.18260   -10.18246   -10.18105   -10.18060   -10.18014
   -10.17988   -10.17887   -10.17835   -10.17798   -10.17780   -10.17530
   -10.17500   -10.17417   -10.17352   -10.17340   -10.17302   -10.17173
   -10.17167   -10.17000   -10.16827   -10.16790   -10.16627   -10.16397
   -10.16146    -8.14008    -6.66128    -6.10512    -6.10427    -6.10297
    -5.25721    -5.25537    -4.82624    -4.82474    -4.82287    -3.61616
    -3.61580    -3.61564    -3.61445    -3.61399    -3.61366    -1.11515
    -1.08700    -1.04391    -1.00631    -0.98916    -0.97134    -0.97080
    -0.94193    -0.92508    -0.87031    -0.86057    -0.85731    -0.84087
    -0.83901    -0.83575    -0.83538    -0.83102    -0.82698    -0.82406
    -0.81414    -0.80468    -0.79490    -0.78879    -0.78546    -0.77454
    -0.75185    -0.75041    -0.74634    -0.74359    -0.74054    -0.73841
    -0.73759    -0.73563    -0.73495    -0.73257    -0.73134    -0.73053
    -0.72935    -0.72842    -0.72722    -0.72639    -0.72503    -0.72227
    -0.70324    -0.70242    -0.66601    -0.65242    -0.64321    -0.62337
    -0.61920    -0.61212    -0.60912    -0.60602    -0.60295    -0.59592
    -0.59557    -0.59502    -0.59074    -0.59049    -0.58904    -0.58800
    -0.58720    -0.58381    -0.58129    -0.58060    -0.58005    -0.57781
    -0.57666    -0.57401    -0.57232    -0.56210    -0.56116    -0.55249
    -0.53791    -0.53468    -0.52906    -0.52374    -0.52096    -0.51596
    -0.50429    -0.50321    -0.50226    -0.50144    -0.49932    -0.49669
    -0.49527    -0.49306    -0.49026    -0.48333    -0.47186    -0.46947
    -0.46593    -0.46502    -0.46291    -0.45995    -0.45365    -0.45064
    -0.44969    -0.44841    -0.44631    -0.44499    -0.44432    -0.44214
    -0.44057    -0.43866    -0.43743    -0.43505    -0.43493    -0.43349
    -0.43307    -0.43198    -0.43044    -0.42729    -0.42605    -0.42513
    -0.42357    -0.42302    -0.42188    -0.42158    -0.42068    -0.41956
    -0.41804    -0.41688    -0.41473    -0.41329    -0.41236    -0.40932
    -0.40813    -0.40693    -0.40461    -0.40235    -0.40132    -0.39814
    -0.39603    -0.39062    -0.38645    -0.38348    -0.38319    -0.38100
    -0.37667    -0.37431    -0.37042    -0.36846    -0.36367    -0.36071
    -0.35880    -0.35685    -0.35608    -0.35429    -0.35138    -0.35076
    -0.34916    -0.34681    -0.34504    -0.34235    -0.34111    -0.33726
    -0.33565    -0.33545    -0.33267    -0.33243    -0.33117    -0.32936
    -0.32662    -0.32646    -0.32434    -0.32208    -0.31962    -0.31695
    -0.31509    -0.31107    -0.31069    -0.30534    -0.30410    -0.30015
    -0.29242    -0.29135    -0.28739    -0.28561    -0.28420    -0.28325
    -0.28232    -0.27931    -0.27696    -0.27453    -0.27106    -0.26675
    -0.25934    -0.25650    -0.25273    -0.24841    -0.24763    -0.24737
    -0.24668    -0.24428    -0.24296    -0.23841    -0.23725    -0.23588
    -0.23469    -0.23407    -0.23323    -0.23068    -0.22989    -0.22756
    -0.21728    -0.20213    -0.08523    -0.05006    -0.04296    -0.03550
    -0.02628    -0.01290    -0.01281    -0.01090    -0.00983    -0.00659
 
  Peak memory usage:    839 Mb
  
  end of program scf
   
 Time(scf)  user:     2025.0  user+sys:     2048.0  wallclock:     3178.8
  
  start of program sole
  
    SCRF                   solvation energy
  iteration          Hartrees            kcal/mol
     0               0.0000000            0.0000
     1              -0.0148631           -9.3267
     2              -0.0157258           -9.8681
     3              -0.0159476          -10.0073
  
  solvation energy not yet converged... 
  
  Peak memory usage:    634 Mb
  
  end of program sole
   
 Time(sole)  user:        0.0  user+sys:        0.0  wallclock:        0.4
  
  start of program ch
  
  gridpoints used for charge fit        16493
    out of a possible maximum of        16493
  
   Electrostatic potential fitting constrained to reproduce
     total charge:                yes
     dipole moment:               no 
     traceless quadrupole moment: no 
     traceless octapole moment:   no 
  
  Atomic charges from electrostatic potential: 
   
 Atom       C1           C2           C3           C4           C5      
 Charge   -0.08758     -0.03210     -0.18311      0.20367      0.03224
   
 Atom       C6           C7           C8           C9           C10     
 Charge   -0.22322     -0.38462     -0.09327      0.02553     -0.15646
   
 Atom       C11          O12          Si13         C14          C15     
 Charge    0.17997     -0.26144     -0.09896      0.09605      0.21758
   
 Atom       C16          C17          C18          C19          C20     
 Charge    0.26168     -0.13623     -0.47355     -0.25841      0.05696
   
 Atom       Si21         O22          C23          C24          P25     
 Charge    0.08765     -0.28897     -0.17695     -0.08578      1.03158
   
 Atom       O26          O27          C28          C29          C30     
 Charge   -0.60058     -0.72620      0.08445      0.21519     -0.08616
   
 Atom       C31          C32          C33          C34          C35     
 Charge    0.06086     -0.08054     -0.04197     -0.07587     -0.18010
   
 Atom       C36          C37          C38          C39          C40     
 Charge   -0.20099     -0.22597      0.00291     -0.05640      0.00501
   
 Atom       C41          C42          C43          C44          C45     
 Charge   -0.14880     -0.01507     -0.08951     -0.07281     -0.02122
   
 Atom       C46          C47          C48          C49          C50     
 Charge   -0.13719     -0.15908     -0.07381     -0.10399     -0.16020
   
 Atom       C51          C52          C53          C54          C55     
 Charge   -0.09612     -0.17578     -0.06157     -0.16853     -0.24494
   
 Atom       C56          C57          C58          C59          C60     
 Charge   -0.04092     -0.17499     -0.18700     -0.09128     -0.14716
   
 Atom       C61          C62          C63          C64          C65     
 Charge   -0.18544     -0.09323     -0.14829     -0.07521     -0.27560
   
 Atom       C66          C67          C68          C69          C70     
 Charge    0.45504     -0.28056      0.00925     -0.19903     -0.51751
   
 Atom       N71          S72          O73          O74          C75     
 Charge   -0.13559      0.66803     -0.44863     -0.40304      0.40658
   
 Atom       C76          C77          C78          C79          N80     
 Charge   -0.31938      0.14220     -0.37792      0.35887     -0.53190
   
 Atom       N81          C82          C83          C84          C85     
 Charge   -0.05646     -0.01643     -0.19907     -0.20285      0.02069
   
 Atom       H86          H87          H88          H89          H90     
 Charge    0.10440      0.13918      0.13532      0.17622      0.12258
   
 Atom       H91          H92          H93          H94          H95     
 Charge    0.12240      0.21296      0.14474      0.13709      0.11923
   
 Atom       H96          H97          H98          H99          H100    
 Charge    0.34791      0.08825      0.13924      0.11511      0.11786
   
 Atom       H101         H102         H103         H104         H105    
 Charge    0.02602      0.11206      0.07826      0.14854      0.05662
   
 Atom       H106         H107         H108         H109         H110    
 Charge    0.12217      0.09363      0.01623      0.13122      0.12250
   
 Atom       H111         H112         H113         H114         H115    
 Charge    0.09819      0.12217      0.12938      0.12165      0.11621
   
 Atom       H116         H117         H118         H119         H120    
 Charge    0.10906      0.12883      0.13704      0.09634      0.09834
   
 Atom       H121         H122         H123         H124         H125    
 Charge    0.13385      0.11783      0.12126      0.13284      0.11507
   
 Atom       H126         H127         H128         H129         H130    
 Charge    0.10586      0.12326      0.16112      0.20725      0.08725
   
 Atom       H131         H132         H133         H134         H135    
 Charge    0.13922      0.22697      0.16895      0.10889      0.17671
   
 Atom       H136         H137         H138         H139         H140    
 Charge    0.05259      0.26135      0.15550      0.16271      0.18179
   
 Atom       H141    
 Charge    0.20224
  
  sum of atomic charges:     0.000000
   
 RMS Error   9.58E-04 hartrees
 
  Peak memory usage:    583 Mb
  
  end of program ch
   
 Time(ch)  user:       18.0  user+sys:       19.0  wallclock:       24.0
  
  start of program post
  
  Writing input files for PBF
  Peak memory usage:    534 Mb
  
  end of program post
   
 Time(post)  user:        0.0  user+sys:        0.0  wallclock:        0.4

  start of program pbf

Pbf Version 4.00

Molecular surface area:      842.53725   [A2]
Reaction field energy:       -15.92168   [kT]
  Peak memory usage: 557 Mb

  end of program pbf

 Time(pbf)  user:       19.2  user+sys:       19.4  wallclock:       30.6
  
  start of program solv
  
   number of surface charges from PBF   13442
   sum of surface charges     -0.00045
   
  nuclear repulsion energy.......   17272.054674602 hartrees
  Peak memory usage:    694 Mb
  
  end of program solv
   
 Time(solv)  user:       35.0  user+sys:       35.0  wallclock:       78.1
  
  start of program scf
  
  
       i  u  d  i  g                   
       t  p  i  c  r                                 RMS    maximum
       e  d  i  u  i                       energy  density   DIIS  
       r  t  s  t  d       total energy    change  change    error 
  
etot    1  N  N  1  U   -4711.55893657214           8.0E-07  1.6E-05
etot    2  N  N  1  U   -4711.55893639265 -1.8E-07  0.0E+00  0.0E+00
  
  
 Energy components, in hartrees:
   (A)  Total zero-electron terms....   17274.70822435755
   (B)    Nuclear-nuclear............   17272.05467460226
   (C)    Nuclear-solvent............       2.65354975530
   (E)  Total one-electron terms.....  -40891.90734247684
   (F)    Electron-nuclear...........  -45563.62618533273
   (G)    Electron-solvent...........      -2.68732887875
   (H)    Kinetic....................    4674.40617173465
   (I)  Total two-electron terms.....   18905.64018172664
   (J)    Coulomb....................   19480.77316205287
   (K)    Exchange+Correlation.......    -575.13298032623
   (L)  Electronic energy............  -21986.26716075020  (E+I)
   (N)  Total quantum mech. energy...   -4711.55893639265  (A+L)
   (O)  Gas phase energy.............   -4711.52612870143
   (P)  Solution phase energy........   -4711.54204683092  (Q+R+S)
   (Q)    Total solute energy........   -4711.52515726919  (N-C-G)
   (R)    Total solvent energy.......      -0.01688956173  (C/2+G/2)
   (S)    Solute cavity energy.......       0.00000000000
   (U)  Reorganization energy........       0.00097143224  (Q-O)
   (V)  Solvation energy.............      -0.01591812949  (P-O)
  
 SCFE:  Solution phase energy: DFT(b3lyp)      -4711.54204683092 hartrees
        SCF iterations:   2
  
 
 HOMO energy:    -0.20213
 LUMO energy:    -0.08527
 
  Orbital energies (hartrees): 
   -89.11482   -77.21711   -66.11077   -66.10887   -19.17816   -19.17486
   -19.14960   -19.14516   -19.09674   -19.09468   -14.37711   -14.36568
   -14.35909   -10.27740   -10.26239   -10.24932   -10.24873   -10.24469
   -10.24306   -10.22935   -10.22666   -10.22143   -10.21846   -10.20903
   -10.20505   -10.20216   -10.20103   -10.20016   -10.19762   -10.19750
   -10.19655   -10.19615   -10.19595   -10.19423   -10.19400   -10.19390
   -10.19306   -10.18973   -10.18898   -10.18798   -10.18716   -10.18702
   -10.18685   -10.18645   -10.18635   -10.18635   -10.18626   -10.18622
   -10.18601   -10.18597   -10.18574   -10.18563   -10.18500   -10.18497
   -10.18496   -10.18459   -10.18420   -10.18416   -10.18394   -10.18382
   -10.18293   -10.18272   -10.18250   -10.18112   -10.18062   -10.18008
   -10.17993   -10.17872   -10.17830   -10.17789   -10.17781   -10.17539
   -10.17513   -10.17405   -10.17351   -10.17349   -10.17289   -10.17193
   -10.17179   -10.17022   -10.16841   -10.16806   -10.16638   -10.16417
   -10.16140    -8.14017    -6.66130    -6.10522    -6.10437    -6.10306
    -5.25736    -5.25542    -4.82626    -4.82476    -4.82289    -3.61632
    -3.61595    -3.61579    -3.61450    -3.61404    -3.61371    -1.11516
    -1.08703    -1.04392    -1.00630    -0.98919    -0.97136    -0.97085
    -0.94193    -0.92508    -0.87032    -0.86059    -0.85731    -0.84089
    -0.83903    -0.83576    -0.83540    -0.83105    -0.82696    -0.82401
    -0.81412    -0.80468    -0.79491    -0.78885    -0.78549    -0.77456
    -0.75184    -0.75044    -0.74637    -0.74360    -0.74055    -0.73843
    -0.73763    -0.73565    -0.73495    -0.73260    -0.73136    -0.73055
    -0.72934    -0.72844    -0.72721    -0.72642    -0.72504    -0.72226
    -0.70325    -0.70242    -0.66602    -0.65241    -0.64322    -0.62338
    -0.61923    -0.61211    -0.60913    -0.60604    -0.60297    -0.59595
    -0.59558    -0.59504    -0.59076    -0.59051    -0.58905    -0.58801
    -0.58722    -0.58384    -0.58134    -0.58061    -0.58004    -0.57782
    -0.57669    -0.57401    -0.57233    -0.56212    -0.56118    -0.55251
    -0.53793    -0.53469    -0.52909    -0.52376    -0.52095    -0.51595
    -0.50430    -0.50321    -0.50226    -0.50144    -0.49933    -0.49669
    -0.49526    -0.49306    -0.49026    -0.48333    -0.47188    -0.46948
    -0.46595    -0.46502    -0.46291    -0.45998    -0.45369    -0.45065
    -0.44969    -0.44843    -0.44632    -0.44500    -0.44433    -0.44215
    -0.44059    -0.43867    -0.43745    -0.43506    -0.43495    -0.43352
    -0.43308    -0.43199    -0.43046    -0.42733    -0.42608    -0.42515
    -0.42354    -0.42300    -0.42186    -0.42157    -0.42070    -0.41956
    -0.41802    -0.41689    -0.41474    -0.41330    -0.41238    -0.40931
    -0.40815    -0.40696    -0.40461    -0.40241    -0.40136    -0.39816
    -0.39601    -0.39062    -0.38647    -0.38349    -0.38322    -0.38101
    -0.37666    -0.37432    -0.37044    -0.36846    -0.36368    -0.36071
    -0.35880    -0.35686    -0.35608    -0.35430    -0.35139    -0.35079
    -0.34916    -0.34683    -0.34507    -0.34235    -0.34111    -0.33727
    -0.33565    -0.33545    -0.33268    -0.33244    -0.33118    -0.32935
    -0.32666    -0.32650    -0.32433    -0.32206    -0.31955    -0.31695
    -0.31511    -0.31105    -0.31067    -0.30534    -0.30412    -0.30019
    -0.29247    -0.29137    -0.28743    -0.28568    -0.28425    -0.28325
    -0.28233    -0.27931    -0.27699    -0.27455    -0.27110    -0.26675
    -0.25935    -0.25652    -0.25276    -0.24841    -0.24766    -0.24739
    -0.24669    -0.24430    -0.24298    -0.23843    -0.23727    -0.23588
    -0.23469    -0.23409    -0.23326    -0.23071    -0.22993    -0.22756
    -0.21727    -0.20213    -0.08527    -0.05005    -0.04296    -0.03548
    -0.02629    -0.01293    -0.01282    -0.01092    -0.00986    -0.00660
 
  Peak memory usage:    839 Mb
  
  end of program scf
   
 Time(scf)  user:      670.0  user+sys:      678.0  wallclock:      965.1
  
  start of program sole
  
    SCRF                   solvation energy
  iteration          Hartrees            kcal/mol
     0               0.0000000            0.0000
     1              -0.0148631           -9.3267
     2              -0.0157258           -9.8681
     3              -0.0159476          -10.0073
     4              -0.0159181           -9.9888
  
  stopping: solvation energy converged
  
  iterations:   4    sfinal:     -9.9888 kcal/mol
  
  Peak memory usage:    634 Mb
  
  end of program sole
   
 Time(sole)  user:        0.0  user+sys:        0.0  wallclock:        0.4
  
  start of program post
  
  Writing input files for PBF
  Peak memory usage:    534 Mb
  
  end of program post
   
 Time(post)  user:        0.0  user+sys:        0.0  wallclock:        0.5

 Total cpu seconds     user:   15931.000   user+sys:   16107.000
  
 Total elapsed time:    25438 seconds

Job B3LYP-SPE-Toru-SiPh3-Type-I-E-5-chkp-2-unrestrained. completed on tethys at Mon Nov 28 18:10:42 2016
