Job Toru-SiPh3-Type-I-E-2-chkp4-unrestrained-IRC-min-disp-SPE started on tethys at Tue Mar 14 16:29:23 2017
jobid: tethys-0-58c81a61

  +--------------------------------------------------------------------+
  |  Jaguar version 9.5, release  11                                   |
  |                                                                    |
  |  Copyright Schrodinger, Inc.                                       |
  |  All Rights Reserved.                                              |
  |                                                                    |
  |  The following have contributed to Jaguar (listed alphabetically): |
  |  Mike Beachy, Art Bochevarov, Dale Braden, Yixiang Cao,            |
  |  Chris Cortis, Rich Friesner, Bill Goddard, Hod Greeley,           |
  |  Tom Hughes, Leif Jacobson, Jean-Marc Langlois,                    |
  |  Daniel Mainz, Rob Murphy, Dean Philipp, Tom Pollard,              |
  |  Murco Ringnalda, Mark Watson, Haoyu Yu.                           |
  |                                                                    |
  |  Use of this program should be acknowledged in publications as:    |
  |                                                                    |
  |  Jaguar, version 9.5, Schrodinger, Inc., New York, NY, 2017.       |
  |                                                                    |
  |  A. D. Bochevarov, E. Harder, T. F. Hughes, J. R. Greenwood,       |
  |  D. A. Braden, D. M. Philipp, D. Rinaldo, M. D. Halls,             |
  |  J. Zhang, R. A. Friesner, "Jaguar: A High-Performance Quantum     |
  |  Chemistry Software Program with Strengths in Life and Materials   |
  |  Sciences", Int. J. Quantum Chem., 2013, 113(18), 2110-2142.       |
  +--------------------------------------------------------------------+
  
  start of program pre
  
  Job name: Toru-SiPh3-Type-I-E-2-chkp4-unrestrained-IRC-min-disp-SPE
  Executables used: /usr/local/shared/schrodinger/current/jaguar-v9.5/bin/Linux-x86_64
  Temporary files : /scratch/ab2144/Toru-SiPh3-Type-I-E-2-chkp4-unrestrained-IRC-min-disp-SPE
  Maestro file (input):  Toru-SiPh3-Type-I-E-2-chkp4-unrestrained-IRC-min-disp-SPE.mae
  Maestro file (output): Toru-SiPh3-Type-I-E-2-chkp4-unrestrained-IRC-min-disp-SPE.01.mae
  
  basis set:             6-31g**                         
  net molecular charge:    0
  multiplicity:            1
  
  keygrid settings 
    wispc.....   7.500E-01
    ldens.....   0
    denspc....   7.500E-01
  
   grid     daf set  nls  grid set  Q type
  ------    -------  ---  --------  ------
  coarse       1      1       1        1
  medium       2      2       2        1
  fine         3      2       3        0
  ultrafine    4      2       4        1
  charge       0      1      -1        1
  gradient     5      2       4        1
  density      0      1       0        0
  DFT-fine     0      1     -13        0
  DFT-med.     0      1     -13        0
  DFT-grad     0      1     -13        0
  DFT-der2     0      1       0        0
  DFT-cphf     0      1       0        0
  LMP2-enrg    4      2       4        1
  LMP2-grad    5      2       2        1
  DFT-cphf2    0      1       0        0
  PBF-dens     0      1       0        0
  plotting     0      1       0        0
  Rel-grad     0      1     -17        0
  
  idftgrdm  100
  ndftgrdm   50    0    0
  idftgrdf  111
  ndftgrdf   85    0    0
  idftgrdg  111
  ndftgrdg   80    3    0
  idftgrdu  433
  ndftgrdu  105    0    0
  idftgrdd  433
  ndftgrdd  105    0    0
  idftgrdc  433
  ndftgrdc   26    0    0
  idftgrdp  433
  ndftgrdp   18    0    0
  
  number of basis functions....         1571
  
 Input geometry:
                                   angstroms
  atom               x                 y                 z
  C1           -1.3502000000     -5.3504000000      0.2008000000 
  C2           -2.0723000000     -4.0458000000      0.2033000000 
  C3           -2.0143000000     -6.4935000000     -0.0052000000 
  C4           -3.3964000000     -4.0364000000     -0.0664000000 
  C5           -1.3614000000     -2.7525000000      0.4596000000 
  C6           -4.1234000000     -5.3088000000     -0.2862000000 
  C7           -4.1148000000     -2.7582000000     -0.2048000000 
  C8           -3.4679000000     -6.4730000000     -0.2491000000 
  C9           -2.0133000000     -1.5782000000      0.2439000000 
  C10           0.0727000000     -2.7581000000      0.8555000000 
  C11          -3.4604000000     -1.5930000000     -0.1118000000 
  O12          -1.4331000000     -0.3654000000      0.5446000000 
  Si13         -4.3541000000      0.0080000000     -0.4667000000 
  C14           0.5400000000     -3.3916000000      1.9549000000 
  C15           1.0286000000     -2.0923000000     -0.0647000000 
  C16           2.0071000000     -3.5414000000      2.1433000000 
  C17          -0.3479000000     -3.9681000000      2.9940000000 
  C18           2.8603000000     -3.0487000000      1.2337000000 
  C19           2.4954000000     -4.2793000000      3.3246000000 
  C20           2.3550000000     -2.2935000000      0.0656000000 
  Si21          3.5902000000     -1.5992000000     -1.1479000000 
  O22           0.5336000000     -1.2093000000     -0.9885000000 
  C23           0.1686000000     -4.6195000000      4.0428000000 
  C24           1.6292000000     -4.7861000000      4.2092000000 
  P25          -0.0793000000      0.1042000000     -0.2496000000 
  O26          -0.4848000000      1.0072000000     -1.4538000000 
  O27           0.8383000000      0.7287000000      0.7410000000 
  C28          -3.7499000000      0.7398000000     -2.0663000000 
  C29          -6.1763000000     -0.2673000000     -0.7191000000 
  C30          -4.0702000000      1.1246000000      0.9925000000 
  C31           4.3324000000     -0.0295000000     -0.4682000000 
  C32           4.8998000000     -2.9018000000     -1.4027000000 
  C33           2.7341000000     -1.2538000000     -2.7707000000 
  C34          -2.8745000000      0.0805000000     -2.8447000000 
  C35          -4.3133000000      2.0282000000     -2.5365000000 
  C36          -7.0889000000      0.2428000000      0.1255000000 
  C37          -6.6301000000     -1.0229000000     -1.9120000000 
  C38          -3.6150000000      2.3802000000      0.8480000000 
  C39          -4.3653000000      0.6077000000      2.3507000000 
  C40           5.1822000000      0.6966000000     -1.2153000000 
  C41           3.9794000000      0.4417000000      0.8934000000 
  C42           6.2102000000     -2.6063000000     -1.3436000000 
  C43           4.4854000000     -4.3099000000     -1.6238000000 
  C44           2.2367000000     -2.2604000000     -3.5097000000 
  C45           2.4950000000      0.1447000000     -3.2033000000 
  C46          -2.4251000000      0.6696000000     -4.1232000000 
  C47          -2.9144000000      1.8473000000     -4.5276000000 
  C48          -3.9114000000      2.5555000000     -3.6995000000 
  C49          -8.5304000000      0.0273000000     -0.1198000000 
  C50          -8.9331000000     -0.6655000000     -1.1916000000 
  C51          -7.9363000000     -1.2137000000     -2.1330000000 
  C52          -3.4764000000      3.2578000000      2.0284000000 
  C53          -3.7571000000      2.7908000000      3.2505000000 
  C54          -4.2127000000      1.3970000000      3.4205000000 
  C55           5.7575000000      1.9501000000     -0.6865000000 
  C56           5.4236000000      2.3770000000      0.5361000000 
  C57           4.4941000000      1.5848000000      1.3646000000 
  C58           7.2232000000     -3.6644000000     -1.5407000000 
  C59           6.8412000000     -4.9273000000     -1.7611000000 
  C60           5.4053000000     -5.2667000000     -1.7970000000 
  C61           1.4855000000     -1.9760000000     -4.7505000000 
  C62           1.2780000000     -0.7116000000     -5.1347000000 
  C63           1.8024000000      0.4009000000     -4.3193000000 
  C64           4.0848000000      6.0421000000     -1.2011000000 
  C65           3.0838000000      5.8199000000     -0.2551000000 
  C66           2.3195000000      4.6479000000     -0.2813000000 
  C67           2.5841000000      3.6906000000     -1.2688000000 
  C68           3.5765000000      3.9169000000     -2.2221000000 
  C69           4.3295000000      5.0916000000     -2.1915000000 
  C70           1.2217000000      4.4512000000      0.7513000000 
  N71           1.4911000000      3.2826000000      1.5974000000 
  S72           0.8348000000      3.3700000000      3.1497000000 
  O73           1.6716000000      4.2559000000      3.9609000000 
  O74          -0.6163000000      3.6619000000      3.0928000000 
  C75           0.9867000000      1.6420000000      3.7002000000 
  C76          -0.1703000000      0.8675000000      3.7594000000 
  C77          -0.0283000000     -0.4426000000      4.2112000000 
  C78           1.2400000000     -0.8969000000      4.5690000000 
  C79           2.3240000000     -0.0241000000      4.4577000000 
  N80           2.2032000000      1.2382000000      4.0335000000 
  N81          -0.4738000000      3.5379000000     -0.9745000000 
  C82          -0.9632000000      4.2221000000     -1.9616000000 
  C83          -1.0842000000      5.6422000000     -1.6757000000 
  C84          -0.6351000000      5.8068000000     -0.4142000000 
  C85          -0.2280000000      4.4736000000      0.1282000000 
  H86          -0.2796000000     -5.3939000000      0.3450000000 
  H87          -1.4835000000     -7.4369000000     -0.0070000000 
  H88          -5.1885000000     -5.3004000000     -0.4819000000 
  H89          -5.1697000000     -2.7851000000     -0.4368000000 
  H90          -3.9994000000     -7.4017000000     -0.4121000000 
  H91          -1.4224000000     -3.8547000000      2.9294000000 
  H92           3.9284000000     -3.1767000000      1.3647000000 
  H93           3.5586000000     -4.4162000000      3.4824000000 
  H94          -0.4942000000     -5.0293000000      4.7940000000 
  H95           2.0014000000     -5.3238000000      5.0717000000 
  H96           1.2969000000      2.3616000000      1.1732000000 
  H97          -2.4748000000     -0.8804000000     -2.5504000000 
  H98          -5.0542000000      2.5476000000     -1.9417000000 
  H99          -6.7938000000      0.8204000000      0.9899000000 
  H100         -5.9053000000     -1.4244000000     -2.6095000000 
  H101         -3.3601000000      2.7786000000     -0.1226000000 
  H102         -4.7072000000     -0.4114000000      2.4821000000 
  H103          5.4476000000      0.3808000000     -2.2167000000 
  H104          3.3066000000     -0.1318000000      1.5160000000 
  H105          6.5534000000     -1.6012000000     -1.1530000000 
  H106          3.4376000000     -4.5794000000     -1.6186000000 
  H107          2.3525000000     -3.2886000000     -3.2025000000 
  H108          2.8492000000      0.9679000000     -2.6058000000 
  H109         -1.6979000000      0.1461000000     -4.7301000000 
  H110         -2.5849000000      2.2809000000     -5.4629000000 
  H111         -4.3185000000      3.4995000000     -4.0375000000 
  H112         -9.2595000000      0.4337000000      0.5691000000 
  H113         -9.9886000000     -0.8224000000     -1.3727000000 
  H114         -8.2650000000     -1.7673000000     -3.0030000000 
  H115         -3.1515000000      4.2821000000      1.9016000000 
  H116         -3.6507000000      3.4324000000      4.1155000000 
  H117         -4.4283000000      1.0181000000      4.4110000000 
  H118          6.4367000000      2.5302000000     -1.2977000000 
  H119          5.8329000000      3.3025000000      0.9198000000 
  H120          4.2359000000      1.9314000000      2.3557000000 
  H121          8.2757000000     -3.4142000000     -1.5060000000 
  H122          7.5823000000     -5.7029000000     -1.9044000000 
  H123          5.0991000000     -6.2934000000     -1.9509000000 
  H124          1.0955000000     -2.7939000000     -5.3423000000 
  H125          0.7212000000     -0.5015000000     -6.0387000000 
  H126          1.6176000000      1.4239000000     -4.6211000000 
  H127          4.6717000000      6.9550000000     -1.1613000000 
  H128          2.9000000000      6.5615000000      0.5181000000 
  H129          2.0151000000      2.7683000000     -1.2873000000 
  H130          3.7724000000      3.1717000000     -2.9869000000 
  H131          5.1065000000      5.2602000000     -2.9313000000 
  H132          1.2470000000      5.3190000000      1.4182000000 
  H133         -1.1220000000      1.2803000000      3.4535000000 
  H134         -0.8933000000     -1.0954000000      4.2797000000 
  H135          1.3928000000     -1.9066000000      4.9345000000 
  H136          3.3281000000     -0.3469000000      4.7223000000 
  H137         -0.4464000000      2.0276000000     -1.1878000000 
  H138         -1.2464000000      3.7327000000     -2.8897000000 
  H139         -1.4680000000      6.3915000000     -2.3555000000 
  H140         -0.5779000000      6.7292000000      0.1504000000 
  H141         -0.8897000000      4.1935000000      0.9610000000 
   
  principal moments of inertia:
        amu*angstrom^2:    17750.15121    21630.96495    26541.98189
                g*cm^2: 2.94748159E-36 3.59190579E-36 4.40739924E-36
   
  rotational constants:
               cm^(-1):      0.00094972      0.00077933      0.00063513
                   GHz:      0.02847181      0.02336368      0.01904074
   
  Molecular weight:    1177.32 amu
   
  Stoichiometry: Si2C72PN3H56SO6
[running at reduced cpu priority]
  Molecular Point Group: C1      
  Point Group used: C1
  
  nuclear repulsion energy.......   17533.946831648 hartrees
 
 Non-default options chosen:
   SCF calculation type: DFT(m06-2x)                 
   DFT=M06-2X
   Solvation energy will be computed using PBF
     -solute cavity energy will not be included
     -surface area terms will not be included
   Highest accuracy cutoffs used in SCF
   Solvent: other                                                           
   Internal dielectric constant:    1.000
   Continuum dielectric constant:   2.380
   Solvent probe molecule radius:   2.760
  
 Temporary integer options set:
     73=  2
  
  atom       vdw   vdw2    cov     mass  grid  daf  charge   basis
  C1        1.949  1.900  0.770   12.000    Y    Y      Y    6-31g**
  C2        1.949  1.900  0.770   12.000    Y    Y      Y    6-31g**
  C3        1.949  1.900  0.770   12.000    Y    Y      Y    6-31g**
  C4        1.949  1.900  0.770   12.000    Y    Y      Y    6-31g**
  C5        1.949  1.900  0.770   12.000    Y    Y      Y    6-31g**
  C6        1.949  1.900  0.770   12.000    Y    Y      Y    6-31g**
  C7        1.949  1.900  0.770   12.000    Y    Y      Y    6-31g**
  C8        1.949  1.900  0.770   12.000    Y    Y      Y    6-31g**
  C9        1.949  1.900  0.770   12.000    Y    Y      Y    6-31g**
  C10       1.949  1.900  0.770   12.000    Y    Y      Y    6-31g**
  C11       1.949  1.900  0.770   12.000    Y    Y      Y    6-31g**
  O12       1.702  1.600  0.730   15.995    Y    Y      Y    6-31g**
  Si13      2.217  2.147  1.110   27.977    Y    Y      Y    6-31g**
  C14       1.949  1.900  0.770   12.000    Y    Y      Y    6-31g**
  C15       1.949  1.900  0.770   12.000    Y    Y      Y    6-31g**
  C16       1.949  1.900  0.770   12.000    Y    Y      Y    6-31g**
  C17       1.949  1.900  0.770   12.000    Y    Y      Y    6-31g**
  C18       1.949  1.900  0.770   12.000    Y    Y      Y    6-31g**
  C19       1.949  1.900  0.770   12.000    Y    Y      Y    6-31g**
  C20       1.949  1.900  0.770   12.000    Y    Y      Y    6-31g**
  Si21      2.217  2.147  1.110   27.977    Y    Y      Y    6-31g**
  O22       1.702  1.600  0.730   15.995    Y    Y      Y    6-31g**
  C23       1.949  1.900  0.770   12.000    Y    Y      Y    6-31g**
  C24       1.949  1.900  0.770   12.000    Y    Y      Y    6-31g**
  P25       2.147  2.074  1.060   30.974    Y    Y      Y    6-31g**
  O26       1.702  1.600  0.730   15.995    Y    Y      Y    6-31g**
  O27       1.702  1.600  0.730   15.995    Y    Y      Y    6-31g**
  C28       1.949  1.900  0.770   12.000    Y    Y      Y    6-31g**
  C29       1.949  1.900  0.770   12.000    Y    Y      Y    6-31g**
  C30       1.949  1.900  0.770   12.000    Y    Y      Y    6-31g**
  C31       1.949  1.900  0.770   12.000    Y    Y      Y    6-31g**
  C32       1.949  1.900  0.770   12.000    Y    Y      Y    6-31g**
  C33       1.949  1.900  0.770   12.000    Y    Y      Y    6-31g**
  C34       1.949  1.900  0.770   12.000    Y    Y      Y    6-31g**
  C35       1.949  1.900  0.770   12.000    Y    Y      Y    6-31g**
  C36       1.949  1.900  0.770   12.000    Y    Y      Y    6-31g**
  C37       1.949  1.900  0.770   12.000    Y    Y      Y    6-31g**
  C38       1.949  1.900  0.770   12.000    Y    Y      Y    6-31g**
  C39       1.949  1.900  0.770   12.000    Y    Y      Y    6-31g**
  C40       1.949  1.900  0.770   12.000    Y    Y      Y    6-31g**
  C41       1.949  1.900  0.770   12.000    Y    Y      Y    6-31g**
  C42       1.949  1.900  0.770   12.000    Y    Y      Y    6-31g**
  C43       1.949  1.900  0.770   12.000    Y    Y      Y    6-31g**
  C44       1.949  1.900  0.770   12.000    Y    Y      Y    6-31g**
  C45       1.949  1.900  0.770   12.000    Y    Y      Y    6-31g**
  C46       1.949  1.900  0.770   12.000    Y    Y      Y    6-31g**
  C47       1.949  1.900  0.770   12.000    Y    Y      Y    6-31g**
  C48       1.949  1.900  0.770   12.000    Y    Y      Y    6-31g**
  C49       1.949  1.900  0.770   12.000    Y    Y      Y    6-31g**
  C50       1.949  1.900  0.770   12.000    Y    Y      Y    6-31g**
  C51       1.949  1.900  0.770   12.000    Y    Y      Y    6-31g**
  C52       1.949  1.900  0.770   12.000    Y    Y      Y    6-31g**
  C53       1.949  1.900  0.770   12.000    Y    Y      Y    6-31g**
  C54       1.949  1.900  0.770   12.000    Y    Y      Y    6-31g**
  C55       1.949  1.900  0.770   12.000    Y    Y      Y    6-31g**
  C56       1.949  1.900  0.770   12.000    Y    Y      Y    6-31g**
  C57       1.949  1.900  0.770   12.000    Y    Y      Y    6-31g**
  C58       1.949  1.900  0.770   12.000    Y    Y      Y    6-31g**
  C59       1.949  1.900  0.770   12.000    Y    Y      Y    6-31g**
  C60       1.949  1.900  0.770   12.000    Y    Y      Y    6-31g**
  C61       1.949  1.900  0.770   12.000    Y    Y      Y    6-31g**
  C62       1.949  1.900  0.770   12.000    Y    Y      Y    6-31g**
  C63       1.949  1.900  0.770   12.000    Y    Y      Y    6-31g**
  C64       1.949  1.900  0.770   12.000    Y    Y      Y    6-31g**
  C65       1.949  1.900  0.770   12.000    Y    Y      Y    6-31g**
  C66       1.949  1.900  0.770   12.000    Y    Y      Y    6-31g**
  C67       1.949  1.900  0.770   12.000    Y    Y      Y    6-31g**
  C68       1.949  1.900  0.770   12.000    Y    Y      Y    6-31g**
  C69       1.949  1.900  0.770   12.000    Y    Y      Y    6-31g**
  C70       1.949  1.900  0.770   12.000    Y    Y      Y    6-31g**
  N71       1.831  1.600  0.750   14.003    Y    Y      Y    6-31g**
  S72       2.070  1.900  1.020   31.972    Y    Y      Y    6-31g**
  O73       1.702  1.600  0.730   15.995    Y    Y      Y    6-31g**
  O74       1.702  1.600  0.730   15.995    Y    Y      Y    6-31g**
  C75       1.949  1.900  0.770   12.000    Y    Y      Y    6-31g**
  C76       1.949  1.900  0.770   12.000    Y    Y      Y    6-31g**
  C77       1.949  1.900  0.770   12.000    Y    Y      Y    6-31g**
  C78       1.949  1.900  0.770   12.000    Y    Y      Y    6-31g**
  C79       1.949  1.900  0.770   12.000    Y    Y      Y    6-31g**
  N80       1.831  1.600  0.750   14.003    Y    Y      Y    6-31g**
  N81       1.831  1.600  0.750   14.003    Y    Y      Y    6-31g**
  C82       1.949  1.900  0.770   12.000    Y    Y      Y    6-31g**
  C83       1.949  1.900  0.770   12.000    Y    Y      Y    6-31g**
  C84       1.949  1.900  0.770   12.000    Y    Y      Y    6-31g**
  C85       1.949  1.900  0.770   12.000    Y    Y      Y    6-31g**
  H86       1.597  1.150  0.320    1.008    Y    Y      Y    6-31g**
  H87       1.597  1.150  0.320    1.008    Y    Y      Y    6-31g**
  H88       1.597  1.150  0.320    1.008    Y    Y      Y    6-31g**
  H89       1.597  1.150  0.320    1.008    Y    Y      Y    6-31g**
  H90       1.597  1.150  0.320    1.008    Y    Y      Y    6-31g**
  H91       1.597  1.150  0.320    1.008    Y    Y      Y    6-31g**
  H92       1.597  1.150  0.320    1.008    Y    Y      Y    6-31g**
  H93       1.597  1.150  0.320    1.008    Y    Y      Y    6-31g**
  H94       1.597  1.150  0.320    1.008    Y    Y      Y    6-31g**
  H95       1.597  1.150  0.320    1.008    Y    Y      Y    6-31g**
  H96       1.597  1.150  0.320    1.008    Y    Y      Y    6-31g**
  H97       1.597  1.150  0.320    1.008    Y    Y      Y    6-31g**
  H98       1.597  1.150  0.320    1.008    Y    Y      Y    6-31g**
  H99       1.597  1.150  0.320    1.008    Y    Y      Y    6-31g**
  H100      1.597  1.150  0.320    1.008    Y    Y      Y    6-31g**
  H101      1.597  1.150  0.320    1.008    Y    Y      Y    6-31g**
  H102      1.597  1.150  0.320    1.008    Y    Y      Y    6-31g**
  H103      1.597  1.150  0.320    1.008    Y    Y      Y    6-31g**
  H104      1.597  1.150  0.320    1.008    Y    Y      Y    6-31g**
  H105      1.597  1.150  0.320    1.008    Y    Y      Y    6-31g**
  H106      1.597  1.150  0.320    1.008    Y    Y      Y    6-31g**
  H107      1.597  1.150  0.320    1.008    Y    Y      Y    6-31g**
  H108      1.597  1.150  0.320    1.008    Y    Y      Y    6-31g**
  H109      1.597  1.150  0.320    1.008    Y    Y      Y    6-31g**
  H110      1.597  1.150  0.320    1.008    Y    Y      Y    6-31g**
  H111      1.597  1.150  0.320    1.008    Y    Y      Y    6-31g**
  H112      1.597  1.150  0.320    1.008    Y    Y      Y    6-31g**
  H113      1.597  1.150  0.320    1.008    Y    Y      Y    6-31g**
  H114      1.597  1.150  0.320    1.008    Y    Y      Y    6-31g**
  H115      1.597  1.150  0.320    1.008    Y    Y      Y    6-31g**
  H116      1.597  1.150  0.320    1.008    Y    Y      Y    6-31g**
  H117      1.597  1.150  0.320    1.008    Y    Y      Y    6-31g**
  H118      1.597  1.150  0.320    1.008    Y    Y      Y    6-31g**
  H119      1.597  1.150  0.320    1.008    Y    Y      Y    6-31g**
  H120      1.597  1.150  0.320    1.008    Y    Y      Y    6-31g**
  H121      1.597  1.150  0.320    1.008    Y    Y      Y    6-31g**
  H122      1.597  1.150  0.320    1.008    Y    Y      Y    6-31g**
  H123      1.597  1.150  0.320    1.008    Y    Y      Y    6-31g**
  H124      1.597  1.150  0.320    1.008    Y    Y      Y    6-31g**
  H125      1.597  1.150  0.320    1.008    Y    Y      Y    6-31g**
  H126      1.597  1.150  0.320    1.008    Y    Y      Y    6-31g**
  H127      1.597  1.150  0.320    1.008    Y    Y      Y    6-31g**
  H128      1.597  1.150  0.320    1.008    Y    Y      Y    6-31g**
  H129      1.597  1.150  0.320    1.008    Y    Y      Y    6-31g**
  H130      1.597  1.150  0.320    1.008    Y    Y      Y    6-31g**
  H131      1.597  1.150  0.320    1.008    Y    Y      Y    6-31g**
  H132      1.597  1.150  0.320    1.008    Y    Y      Y    6-31g**
  H133      1.597  1.150  0.320    1.008    Y    Y      Y    6-31g**
  H134      1.597  1.150  0.320    1.008    Y    Y      Y    6-31g**
  H135      1.597  1.150  0.320    1.008    Y    Y      Y    6-31g**
  H136      1.597  1.150  0.320    1.008    Y    Y      Y    6-31g**
  H137      1.597  1.150  0.320    1.008    Y    Y      Y    6-31g**
  H138      1.597  1.150  0.320    1.008    Y    Y      Y    6-31g**
  H139      1.597  1.150  0.320    1.008    Y    Y      Y    6-31g**
  H140      1.597  1.150  0.320    1.008    Y    Y      Y    6-31g**
  H141      1.597  1.150  0.320    1.008    Y    Y      Y    6-31g**
  
  Peak memory usage:    766 Mb
  
  end of program pre
   
 Time(pre)  user:        1.0  user+sys:        1.0  wallclock:        3.0
  
  start of program onee
  
  smallest eigenvalue of S:    2.295E-04
  number of canonical orbitals.....         1563
  Peak memory usage:    893 Mb
  
  end of program onee
   
 Time(onee)  user:       17.3  user+sys:       17.3  wallclock:       39.4
  
  start of program hfig
  
  initial wavefunction generated automatically from atomic wavefunctions
 
  Irreducible     Total no   No of occupied orbitals 
  representation  orbitals   Shell_1  Shell_2    ...
  No Symm         1563        308
  ------------------------
  Orbital occupation/shell    1.000
 
  Peak memory usage:    826 Mb
  
  end of program hfig
   
 Time(hfig)  user:       30.5  user+sys:       30.5  wallclock:       59.7
  
  start of program probe
  
  Peak memory usage:    820 Mb
  
  end of program probe
   
 Time(probe)  user:       19.6  user+sys:       19.6  wallclock:       42.7
  
  start of program grid
  
   grid     grid set  grid #  grid sym
  ------    --------  ------  --------
  coarse        0        0        1
  medium        2        1        1
  fine          0        0        1
  ultrafine     4        2        1
  charge       -1        3        1
  gradient      4        2        1
  density       0        0        1
  DFT-fine    -13        4        1
  DFT-med.    -13        4        1
  DFT-grad    -13        4        1
  DFT-der2      0        0        1
  DFT-cphf      0        0        1
  LMP2-enrg     4        2        1
  LMP2-grad     2        1        1
  DFT-cphf2     0        0        1
  PBF-dens      0        0        1
  plotting      0        0        1
  Rel-grad    -17        0        1
  
  number of gridpoints: 
     atom        C1       C2       C3       C4       C5       C6       C7
  grid # 1       97      101       94      102      100       96       93
  grid # 2      338      360      336      366      358      336      336
  grid # 3       34       28       41       47       17       46       26
  grid # 4    48124    48124    48124    48124    48124    48124    48124
   
  number of gridpoints: 
     atom        C8       C9      C10      C11      O12     Si13      C14
  grid # 1       94       97      100      100      111      470      101
  grid # 2      336      356      354      357      438      470      356
  grid # 3       49       18        9        8       46        8       10
  grid # 4    48124    48124    48124    48124    47716    38542    48124
   
  number of gridpoints: 
     atom       C15      C16      C17      C18      C19      C20     Si21
  grid # 1       97      101       96       93       97      101      478
  grid # 2      353      363      332      331      335      360      478
  grid # 3       22       24       10       16       24        9       10
  grid # 4    48124    48124    48124    48124    48124    48124    38542
   
  number of gridpoints: 
     atom       O22      C23      C24      P25      O26      O27      C28
  grid # 1      112       93       93      447      111      115       99
  grid # 2      436      334      334      447      415      453      359
  grid # 3       51       22       25        7       45       39       11
  grid # 4    47716    48124    48124    38640    47716    47716    48124
   
  number of gridpoints: 
     atom       C29      C30      C31      C32      C33      C34      C35
  grid # 1       99      101      101      101      100       92       94
  grid # 2      360      358      358      361      359      331      335
  grid # 3       12        7       14       19       19       14       21
  grid # 4    48124    48124    48124    48124    48124    48124    48124
   
  number of gridpoints: 
     atom       C36      C37      C38      C39      C40      C41      C42
  grid # 1       93       94       92       94       92       97       93
  grid # 2      337      335      335      332      332      336      338
  grid # 3       29       22       23       11       10       27       35
  grid # 4    48124    48124    48124    48124    48124    48124    48124
   
  number of gridpoints: 
     atom       C43      C44      C45      C46      C47      C48      C49
  grid # 1       95       93       95       93       93       93       94
  grid # 2      334      335      334      333      330      331      335
  grid # 3       27       33       22       26       27       24       46
  grid # 4    48124    48124    48124    48124    48124    48124    48124
   
  number of gridpoints: 
     atom       C50      C51      C52      C53      C54      C55      C56
  grid # 1       94       93       93       93       92       93       93
  grid # 2      335      335      332      331      331      332      333
  grid # 3       48       38       25       24       17       22       29
  grid # 4    48124    48124    48124    48124    48124    48124    48124
   
  number of gridpoints: 
     atom       C57      C58      C59      C60      C61      C62      C63
  grid # 1       93       94       94       94       93       93       93
  grid # 2      335      336      336      336      336      334      334
  grid # 3       31       45       47       42       38       31       33
  grid # 4    48124    48124    48124    48124    48124    48124    48124
   
  number of gridpoints: 
     atom       C64      C65      C66      C67      C68      C69      C70
  grid # 1       96       95      100       95       96       96       92
  grid # 2      330      332      363      330      328      330      313
  grid # 3       35       29       21       20       27       34        6
  grid # 4    48124    48124    48124    48124    48124    48124    48124
   
  number of gridpoints: 
     atom       N71      S72      O73      O74      C75      C76      C77
  grid # 1       99      436      123      119       98       96       96
  grid # 2      356      436      511      472      356      328      331
  grid # 3       18       10      321      105       30       30       34
  grid # 4    47928    48492    47716    47716    48124    48124    48124
   
  number of gridpoints: 
     atom       C78      C79      N80      N81      C82      C83      C84
  grid # 1       96       96      110      106       92       92       93
  grid # 2      330      336      414      379      331      330      330
  grid # 3       36       31       74        6       18       32       19
  grid # 4    48124    48124    47928    47928    48124    48124    48124
   
  number of gridpoints: 
     atom       C85      H86      H87      H88      H89      H90      H91
  grid # 1       91      112      118      118      109      118      114
  grid # 2      314      434      451      446      426      453      432
  grid # 3        6      225      419      358      175      425      223
  grid # 4    48124    48426    48426    48426    48426    48426    48426
   
  number of gridpoints: 
     atom       H92      H93      H94      H95      H96      H97      H98
  grid # 1      113      117      117      117       99      109      112
  grid # 2      428      443      448      449      389      430      433
  grid # 3      214      342      393      400       52      182      256
  grid # 4    48426    48426    48426    48426    48426    48426    48426
   
  number of gridpoints: 
     atom       H99     H100     H101     H102     H103     H104     H105
  grid # 1      111      112      107      113      112      108      111
  grid # 2      435      436      421      436      429      417      431
  grid # 3      238      256      128      263      221      117      229
  grid # 4    48426    48426    48426    48426    48426    48426    48426
   
  number of gridpoints: 
     atom      H106     H107     H108     H109     H110     H111     H112
  grid # 1      110      111      105      113      117      117      118
  grid # 2      425      427      407      437      451      452      453
  grid # 3      189      212       61      238      379      379      420
  grid # 4    48426    48426    48426    48426    48426    48426    48426
   
  number of gridpoints: 
     atom      H113     H114     H115     H116     H117     H118     H119
  grid # 1      118      118      111      116      117      116      117
  grid # 2      453      452      435      449      450      445      447
  grid # 3      423      420      255      374      384      331      353
  grid # 4    48426    48426    48426    48426    48426    48426    48426
   
  number of gridpoints: 
     atom      H120     H121     H122     H123     H124     H125     H126
  grid # 1      112      118      118      118      118      116      116
  grid # 2      433      452      453      452      451      444      445
  grid # 3      220      417      424      420      410      329      308
  grid # 4    48426    48426    48426    48426    48426    48426    48426
   
  number of gridpoints: 
     atom      H127     H128     H129     H130     H131     H132     H133
  grid # 1      117      111      105      112      117      102      109
  grid # 2      450      439      410      426      448      415      423
  grid # 3      410      311       79      215      384      131      147
  grid # 4    48426    48426    48426    48426    48426    48426    48426
   
  number of gridpoints: 
     atom      H134     H135     H136     H137     H138     H139     H140
  grid # 1      114      112      117       99      113      118      114
  grid # 2      441      435      449      384      434      457      453
  grid # 3      267      233      376       60      220      456      370
  grid # 4    48426    48426    48426    48426    48426    48426    48426
   
  number of gridpoints: 
     atom      H141    total
  grid # 1      102    16035
  grid # 2      405    54571
  grid # 3       71    18374
  grid # 4    48426  6771080
   
  Peak memory usage:    793 Mb
  
  end of program grid
   
 Time(grid)  user:     1091.6  user+sys:     1091.6  wallclock:     4479.8
  
  start of program rwr
  
  Peak memory usage:    802 Mb
  
  end of program rwr
   
 Time(rwr)  user:       62.3  user+sys:       62.3  wallclock:      282.7
  
  start of program scf
  
 number of electrons..........        616
 number of alpha electrons....        308
 number of beta electrons.....        308
 number of orbitals, total....       1563
 number of doubly-occ'd orbs..        308
 number of open shell orbs....          0
 number of occupied orbitals..        308
 number of virtual orbitals...       1255
 number of hamiltonians.......          1
 number of shells.............          1
 SCF type: DFT=M06-2X
 Energy computed with NOPS off.
  
       i  u  d  i  g                   
       t  p  i  c  r                                 RMS    maximum
       e  d  i  u  i                       energy  density   DIIS  
       r  t  s  t  d       total energy    change  change    error 
  
etot    1  N  N  1  U   -4700.12127625772           2.3E-03  9.6E-02
etot    2  N  Y  1  U   -4706.62232579375  6.5E+00  2.5E-03  1.0E-01
etot    3  N  Y  1  U   -4705.12440898727 -1.5E+00  2.1E-03  1.2E-01
etot    4  N  Y  1  U   -4709.73662147155  4.6E+00  6.3E-04  4.2E-02
etot    5  N  Y  1  U   -4709.95994386152  2.2E-01  2.9E-04  1.4E-02
etot    6  N  Y  1  U   -4710.05148725887  9.2E-02  9.0E-05  3.7E-03
etot    7  N  Y  1  U   -4710.06292598399  1.1E-02  2.7E-05  9.1E-04
etot    8  N  Y  1  U   -4710.06368891643  7.6E-04  1.0E-05  3.8E-04
etot    9  N  Y  1  U   -4710.06381430896  1.3E-04  3.6E-06  1.7E-04
etot   10  N  N  1  U   -4710.06383246608  1.8E-05  0.0E+00  0.0E+00
  
  
 Energy components, in hartrees:
   (A)  Nuclear repulsion............   17533.94683164772
   (E)  Total one-electron terms.....  -41404.32028677452
   (F)    Electron-nuclear...........  -46079.68699222406
   (H)    Kinetic....................    4675.36670544954
   (I)  Total two-electron terms.....   19160.30962266072
   (J)    Coulomb....................   19733.69068771783
   (K)    Exchange+Correlation.......    -573.38106505712
   (L)  Electronic energy............  -22244.01066411380  (E+I)
   (M)  -V/T.........................       2.00742126323  (-(A+F+I)/H)
   (N)  Total energy.................   -4710.06383246608  (A+L)
   (O)  Gas phase energy.............   -4710.06383246608
  
 SCFE: SCF energy: DFT(m06-2x)     -4710.06383246608 hartrees   iterations:  10
  
 
 HOMO energy:    -0.26229
 LUMO energy:    -0.02957
 
  Orbital energies (hartrees): 
   -90.13752   -78.21840   -67.01125   -67.00910   -19.69718   -19.69403
   -19.64953   -19.61735   -19.61544   -19.60704   -14.78895   -14.77166
   -14.76600   -10.63112   -10.62950   -10.61456   -10.60978   -10.60965
   -10.59490   -10.59035   -10.58151   -10.57840   -10.57763   -10.57578
   -10.57517   -10.57228   -10.57170   -10.57049   -10.56768   -10.56617
   -10.56517   -10.56485   -10.56457   -10.56433   -10.56395   -10.56324
   -10.56130   -10.55905   -10.55898   -10.55816   -10.55788   -10.55688
   -10.55367   -10.55333   -10.55294   -10.55268   -10.55266   -10.55169
   -10.55164   -10.55161   -10.55058   -10.55049   -10.55028   -10.54947
   -10.54912   -10.54907   -10.54879   -10.54854   -10.54843   -10.54800
   -10.54792   -10.54743   -10.54743   -10.54738   -10.54716   -10.54635
   -10.54604   -10.54594   -10.54506   -10.54489   -10.54420   -10.54348
   -10.54325   -10.54267   -10.54077   -10.53641   -10.53560   -10.53434
   -10.53417   -10.53407   -10.53224   -10.53117   -10.52919   -10.52721
   -10.52519    -8.44840    -6.99803    -6.37023    -6.36953    -6.36928
    -5.54267    -5.54020    -5.11634    -5.11534    -5.11435    -3.85249
    -3.85218    -3.85186    -3.85009    -3.84956    -3.84953    -1.24202
    -1.20892    -1.19144    -1.14889    -1.09302    -1.08378    -1.08016
    -1.06322    -1.01727    -0.98947    -0.97433    -0.95238    -0.94805
    -0.94428    -0.94385    -0.94035    -0.93775    -0.92962    -0.92872
    -0.91854    -0.90613    -0.89730    -0.89129    -0.87952    -0.86272
    -0.86086    -0.84761    -0.84597    -0.83898    -0.83873    -0.83745
    -0.83602    -0.83557    -0.83399    -0.83392    -0.83142    -0.83107
    -0.82995    -0.82913    -0.82514    -0.82473    -0.81881    -0.81671
    -0.80839    -0.77377    -0.75453    -0.73358    -0.72076    -0.71938
    -0.71165    -0.70330    -0.69531    -0.69089    -0.68338    -0.68204
    -0.67966    -0.67775    -0.67688    -0.67564    -0.67447    -0.67182
    -0.67144    -0.66914    -0.66497    -0.66274    -0.66204    -0.66178
    -0.65854    -0.65614    -0.65258    -0.64384    -0.63367    -0.62379
    -0.62179    -0.61128    -0.60766    -0.60413    -0.58971    -0.58884
    -0.58718    -0.58365    -0.58213    -0.57949    -0.57750    -0.57413
    -0.57046    -0.56936    -0.56477    -0.55515    -0.55313    -0.54978
    -0.54373    -0.54234    -0.53959    -0.53651    -0.53156    -0.52567
    -0.52273    -0.52099    -0.51973    -0.51790    -0.51599    -0.51546
    -0.51498    -0.51146    -0.50847    -0.50761    -0.50458    -0.50391
    -0.50382    -0.50357    -0.50052    -0.49970    -0.49913    -0.49643
    -0.49483    -0.49378    -0.49009    -0.48808    -0.48710    -0.48615
    -0.48568    -0.48451    -0.48336    -0.48225    -0.48030    -0.47823
    -0.47425    -0.47375    -0.47309    -0.47153    -0.46844    -0.46305
    -0.46117    -0.45691    -0.45495    -0.45428    -0.45189    -0.45057
    -0.44563    -0.44256    -0.43857    -0.43749    -0.43695    -0.43493
    -0.42922    -0.42882    -0.42539    -0.42467    -0.41995    -0.41903
    -0.41787    -0.41430    -0.41366    -0.40797    -0.40548    -0.40364
    -0.39912    -0.39722    -0.39503    -0.39403    -0.39335    -0.39155
    -0.39026    -0.38864    -0.38768    -0.38598    -0.38520    -0.38405
    -0.38008    -0.37754    -0.37442    -0.37004    -0.36645    -0.36219
    -0.35941    -0.35754    -0.35607    -0.35088    -0.34567    -0.34363
    -0.34184    -0.34054    -0.33685    -0.33379    -0.33221    -0.32281
    -0.31660    -0.30887    -0.30468    -0.30452    -0.30280    -0.30071
    -0.30018    -0.29925    -0.29845    -0.29722    -0.29388    -0.29379
    -0.29297    -0.29261    -0.28869    -0.28814    -0.28464    -0.28020
    -0.27871    -0.26229    -0.02957    -0.02323    -0.00671    -0.00167
     0.00456     0.01372     0.01623     0.01795     0.01954     0.02448
 
  Peak memory usage:   1034 Mb
  
  end of program scf
   
 Time(scf)  user:    24561.5  user+sys:    24561.5  wallclock:   105625.8
  
  start of program ch
  
  gridpoints used for charge fit        15833
    out of a possible maximum of        18374
  
   Electrostatic potential fitting constrained to reproduce
     total charge:                yes
     dipole moment:               no 
     traceless quadrupole moment: no 
     traceless octapole moment:   no 
  
  Atomic charges from electrostatic potential: 
   
 Atom       C1           C2           C3           C4           C5      
 Charge   -0.13207      0.01953     -0.16023      0.15175      0.02367
   
 Atom       C6           C7           C8           C9           C10     
 Charge   -0.19888     -0.31346     -0.12084     -0.02138     -0.11140
   
 Atom       C11          O12          Si13         C14          C15     
 Charge    0.14160     -0.23181     -0.11218      0.15578      0.11261
   
 Atom       C16          C17          C18          C19          C20     
 Charge    0.24154     -0.20569     -0.43831     -0.27261      0.04214
   
 Atom       Si21         O22          C23          C24          P25     
 Charge    0.08440     -0.18311     -0.14970     -0.09901      0.78498
   
 Atom       O26          O27          C28          C29          C30     
 Charge   -0.42232     -0.52157      0.07444      0.07557      0.22714
   
 Atom       C31          C32          C33          C34          C35     
 Charge    0.03341     -0.04493     -0.02418     -0.01874     -0.18856
   
 Atom       C36          C37          C38          C39          C40     
 Charge   -0.11085     -0.13511     -0.28437     -0.15022     -0.02719
   
 Atom       C41          C42          C43          C44          C45     
 Charge   -0.16441     -0.02278     -0.12254     -0.10271     -0.08598
   
 Atom       C46          C47          C48          C49          C50     
 Charge   -0.17311     -0.11979     -0.13652     -0.15475     -0.13243
   
 Atom       C51          C52          C53          C54          C55     
 Charge   -0.13457     -0.07327     -0.15691     -0.12783     -0.21061
   
 Atom       C56          C57          C58          C59          C60     
 Charge   -0.10900     -0.08807     -0.18727     -0.11184     -0.13469
   
 Atom       C61          C62          C63          C64          C65     
 Charge   -0.18104     -0.07287     -0.15630     -0.14362     -0.22755
   
 Atom       C66          C67          C68          C69          C70     
 Charge    0.24212     -0.05978     -0.12895     -0.15545     -0.16195
   
 Atom       N71          S72          O73          O74          C75     
 Charge   -0.49735      0.64077     -0.42411     -0.48793      0.56871
   
 Atom       C76          C77          C78          C79          N80     
 Charge   -0.42880      0.17690     -0.40740      0.37853     -0.58341
   
 Atom       N81          C82          C83          C84          C85     
 Charge   -0.15117      0.04995     -0.19423     -0.23879      0.10393
   
 Atom       H86          H87          H88          H89          H90     
 Charge    0.11983      0.14448      0.14059      0.15496      0.13620
   
 Atom       H91          H92          H93          H94          H95     
 Charge    0.13896      0.21497      0.16417      0.14442      0.13119
   
 Atom       H96          H97          H98          H99          H100    
 Charge    0.35276      0.07950      0.13534      0.09275      0.11296
   
 Atom       H101         H102         H103         H104         H105    
 Charge    0.15096      0.10296      0.08625      0.11893      0.06591
   
 Atom       H106         H107         H108         H109         H110    
 Charge    0.12256      0.11399      0.09748      0.12771      0.12647
   
 Atom       H111         H112         H113         H114         H115    
 Charge    0.12651      0.13810      0.13279      0.13085      0.11666
   
 Atom       H116         H117         H118         H119         H120    
 Charge    0.14747      0.12732      0.13423      0.13666      0.10286
   
 Atom       H121         H122         H123         H124         H125    
 Charge    0.14294      0.12751      0.12500      0.13478      0.11253
   
 Atom       H126         H127         H128         H129         H130    
 Charge    0.11446      0.14423      0.13462      0.07272      0.11199
   
 Atom       H131         H132         H133         H134         H135    
 Charge    0.13713      0.19035      0.18866      0.09145      0.15166
   
 Atom       H136         H137         H138         H139         H140    
 Charge    0.05750      0.21609      0.12934      0.17592      0.18286
   
 Atom       H141    
 Charge    0.18755
  
  sum of atomic charges:    -0.000000
   
 RMS Error   9.89E-04 hartrees
 
  Peak memory usage:    810 Mb
  
  end of program ch
   
 Time(ch)  user:       17.1  user+sys:       17.1  wallclock:       77.8
  
  start of program post
  
  Writing input files for PBF
  Peak memory usage:    757 Mb
  
  end of program post
   
 Time(post)  user:        0.9  user+sys:        0.9  wallclock:        4.0

  start of program pbf

Pbf Version 4.10

Molecular surface area:      775.77847   [A2]
Reaction field energy:       -17.44056   [kT]
  Peak memory usage: 719 Mb

  end of program pbf

 Time(pbf)  user:        6.5  user+sys:        6.6  wallclock:       24.1
  
  start of program solv
  
   number of surface charges from PBF   12912
   sum of surface charges     -0.00016
   
  nuclear repulsion energy.......   17533.946831648 hartrees
  Peak memory usage:    887 Mb
  
  end of program solv
   
 Time(solv)  user:       34.9  user+sys:       34.9  wallclock:      147.0
  
  start of program scf
  
 Energy computed with NOPS off.
  
       i  u  d  i  g                   
       t  p  i  c  r                                 RMS    maximum
       e  d  i  u  i                       energy  density   DIIS  
       r  t  s  t  d       total energy    change  change    error 
  
etot    1  N  N  1  U   -4710.10023968238           5.9E-05  1.6E-03
etot    2  N  Y  1  U   -4710.10109953285  8.6E-04  1.8E-05  8.5E-04
etot    3  N  Y  1  U   -4710.10135953995  2.6E-04  6.2E-06  4.1E-04
etot    4  N  Y  1  U   -4710.10141533952  5.6E-05  2.5E-06  9.5E-05
etot    5  N  N  1  U   -4710.10141992690  4.6E-06  0.0E+00  0.0E+00
  
  
 Energy components, in hartrees:
   (A)  Total zero-electron terms....   17536.09333351208
   (B)    Nuclear-nuclear............   17533.94683164772
   (C)    Nuclear-solvent............       2.14650186436
   (E)  Total one-electron terms.....  -41407.75688489053
   (F)    Electron-nuclear...........  -46080.99567360121
   (G)    Electron-solvent...........      -2.18525510647
   (H)    Kinetic....................    4675.42404381716
   (I)  Total two-electron terms.....   19161.56213145154
   (J)    Coulomb....................   19734.96452823194
   (K)    Exchange+Correlation.......    -573.40239678039
   (L)  Electronic energy............  -22246.19475343898  (E+I)
   (N)  Total quantum mech. energy...   -4710.10141992690  (A+L)
   (O)  Gas phase energy.............   -4710.06383246608
   (P)  Solution phase energy........   -4710.08204330585  (Q+R+S)
   (Q)    Total solute energy........   -4710.06266668479  (N-C-G)
   (R)    Total solvent energy.......      -0.01937662106  (C/2+G/2)
   (S)    Solute cavity energy.......       0.00000000000
   (U)  Reorganization energy........       0.00116578129  (Q-O)
   (V)  Solvation energy.............      -0.01821083976  (P-O)
  
 SCFE:  Solution phase energy: DFT(m06-2x)      -4710.08204330585 hartrees
        SCF iterations:   5
  
 
 HOMO energy:    -0.26206
 LUMO energy:    -0.02927
 
  Orbital energies (hartrees): 
   -90.14823   -78.21968   -67.01176   -67.01090   -19.69810   -19.69479
   -19.65015   -19.62839   -19.62775   -19.60938   -14.78803   -14.77832
   -14.77292   -10.63143   -10.62998   -10.61643   -10.61303   -10.61178
   -10.59505   -10.59446   -10.57826   -10.57795   -10.57757   -10.57620
   -10.57547   -10.57524   -10.57025   -10.56991   -10.56864   -10.56834
   -10.56775   -10.56597   -10.56490   -10.56215   -10.56133   -10.56121
   -10.55983   -10.55880   -10.55854   -10.55807   -10.55683   -10.55562
   -10.55376   -10.55332   -10.55283   -10.55205   -10.55202   -10.55173
   -10.55170   -10.55148   -10.55101   -10.55096   -10.55069   -10.55030
   -10.54997   -10.54995   -10.54959   -10.54917   -10.54894   -10.54852
   -10.54822   -10.54806   -10.54795   -10.54790   -10.54784   -10.54772
   -10.54767   -10.54721   -10.54619   -10.54555   -10.54534   -10.54525
   -10.54492   -10.54485   -10.54275   -10.53878   -10.53757   -10.53714
   -10.53611   -10.53517   -10.53410   -10.53337   -10.53166   -10.53120
   -10.52812    -8.45912    -6.99930    -6.38089    -6.38034    -6.37999
    -5.54320    -5.54201    -5.11761    -5.11661    -5.11564    -3.85302
    -3.85270    -3.85239    -3.85188    -3.85138    -3.85134    -1.24295
    -1.22074    -1.19228    -1.14967    -1.10543    -1.08515    -1.08000
    -1.06928    -1.02297    -0.98932    -0.97408    -0.95394    -0.94848
    -0.94571    -0.94429    -0.94155    -0.93977    -0.93272    -0.92867
    -0.91809    -0.91059    -0.89707    -0.89166    -0.88127    -0.86540
    -0.86016    -0.84788    -0.84637    -0.83916    -0.83901    -0.83757
    -0.83717    -0.83651    -0.83476    -0.83447    -0.83183    -0.83123
    -0.83109    -0.82914    -0.82645    -0.82615    -0.82254    -0.81974
    -0.80795    -0.77777    -0.75477    -0.73710    -0.72403    -0.72064
    -0.71101    -0.70337    -0.69528    -0.69379    -0.68322    -0.68201
    -0.67974    -0.67897    -0.67855    -0.67665    -0.67496    -0.67255
    -0.67205    -0.67043    -0.66511    -0.66330    -0.66280    -0.66155
    -0.66052    -0.65593    -0.65532    -0.64374    -0.63367    -0.62866
    -0.62138    -0.61149    -0.60677    -0.60502    -0.59228    -0.58863
    -0.58689    -0.58336    -0.58160    -0.58022    -0.57865    -0.57723
    -0.57220    -0.57040    -0.56456    -0.56097    -0.55668    -0.54998
    -0.54737    -0.54301    -0.54015    -0.53697    -0.53100    -0.52952
    -0.52438    -0.52115    -0.52064    -0.52005    -0.51766    -0.51627
    -0.51584    -0.51531    -0.51057    -0.50944    -0.50455    -0.50386
    -0.50360    -0.50233    -0.50111    -0.50033    -0.49974    -0.49696
    -0.49663    -0.49486    -0.49084    -0.49069    -0.48813    -0.48656
    -0.48536    -0.48402    -0.48363    -0.48249    -0.48085    -0.47884
    -0.47794    -0.47557    -0.47397    -0.47245    -0.46908    -0.46579
    -0.46123    -0.45732    -0.45533    -0.45441    -0.45299    -0.45064
    -0.44732    -0.44421    -0.44185    -0.43825    -0.43788    -0.43553
    -0.43052    -0.42995    -0.42704    -0.42497    -0.42107    -0.41982
    -0.41947    -0.41512    -0.41482    -0.41123    -0.40552    -0.40297
    -0.40183    -0.39895    -0.39464    -0.39421    -0.39373    -0.39305
    -0.39179    -0.39087    -0.39007    -0.38800    -0.38700    -0.38554
    -0.38438    -0.38155    -0.37720    -0.37272    -0.37109    -0.36974
    -0.36395    -0.36091    -0.35685    -0.35130    -0.34823    -0.34577
    -0.34355    -0.34138    -0.33921    -0.33405    -0.33144    -0.32917
    -0.32177    -0.31067    -0.30948    -0.30560    -0.30450    -0.30289
    -0.30116    -0.30074    -0.29954    -0.29816    -0.29627    -0.29556
    -0.29413    -0.29355    -0.29067    -0.28981    -0.28793    -0.28265
    -0.27998    -0.26206    -0.02927    -0.02191    -0.00705    -0.00669
     0.00419     0.01192     0.01352     0.01715     0.01746     0.02184
 
  Peak memory usage:   1035 Mb
  
  end of program scf
   
 Time(scf)  user:     9864.7  user+sys:     9864.7  wallclock:    42182.5
  
  start of program sole
  
    SCRF                   solvation energy
  iteration          Hartrees            kcal/mol
     0               0.0000000            0.0000
     1              -0.0182108          -11.4275
  
  solvation energy not yet converged... 
  
  Peak memory usage:    812 Mb
  
  end of program sole
   
 Time(sole)  user:        0.2  user+sys:        0.2  wallclock:        0.7
  
  start of program ch
  
  gridpoints used for charge fit        15833
    out of a possible maximum of        15833
  
   Electrostatic potential fitting constrained to reproduce
     total charge:                yes
     dipole moment:               no 
     traceless quadrupole moment: no 
     traceless octapole moment:   no 
  
  Atomic charges from electrostatic potential: 
   
 Atom       C1           C2           C3           C4           C5      
 Charge   -0.13033      0.01231     -0.17002      0.15887      0.03158
   
 Atom       C6           C7           C8           C9           C10     
 Charge   -0.20926     -0.33282     -0.12567     -0.04312     -0.11169
   
 Atom       C11          O12          Si13         C14          C15     
 Charge    0.16754     -0.21992     -0.13742      0.16356      0.09229
   
 Atom       C16          C17          C18          C19          C20     
 Charge    0.24106     -0.21143     -0.45029     -0.27914      0.06531
   
 Atom       Si21         O22          C23          C24          P25     
 Charge    0.06113     -0.16036     -0.15439     -0.10489      0.74891
   
 Atom       O26          O27          C28          C29          C30     
 Charge   -0.40546     -0.50699      0.08512      0.07959      0.23965
   
 Atom       C31          C32          C33          C34          C35     
 Charge    0.04338     -0.05158     -0.01555     -0.02274     -0.19659
   
 Atom       C36          C37          C38          C39          C40     
 Charge   -0.11331     -0.14083     -0.29754     -0.15374     -0.02485
   
 Atom       C41          C42          C43          C44          C45     
 Charge   -0.17209     -0.01912     -0.12297     -0.11879     -0.10300
   
 Atom       C46          C47          C48          C49          C50     
 Charge   -0.18460     -0.12814     -0.14137     -0.16460     -0.13928
   
 Atom       C51          C52          C53          C54          C55     
 Charge   -0.14027     -0.07227     -0.16766     -0.13213     -0.21828
   
 Atom       C56          C57          C58          C59          C60     
 Charge   -0.11780     -0.09714     -0.19920     -0.11683     -0.14236
   
 Atom       C61          C62          C63          C64          C65     
 Charge   -0.18167     -0.08383     -0.15491     -0.15503     -0.23024
   
 Atom       C66          C67          C68          C69          C70     
 Charge    0.24946     -0.04667     -0.14393     -0.15490     -0.19671
   
 Atom       N71          S72          O73          O74          C75     
 Charge   -0.48072      0.65034     -0.45634     -0.50147      0.57917
   
 Atom       C76          C77          C78          C79          N80     
 Charge   -0.44467      0.18536     -0.41085      0.38663     -0.61024
   
 Atom       N81          C82          C83          C84          C85     
 Charge   -0.15463      0.04270     -0.19313     -0.24713      0.10873
   
 Atom       H86          H87          H88          H89          H90     
 Charge    0.12034      0.15357      0.14841      0.16208      0.14481
   
 Atom       H91          H92          H93          H94          H95     
 Charge    0.14251      0.22243      0.17181      0.15277      0.13988
   
 Atom       H96          H97          H98          H99          H100    
 Charge    0.35398      0.08047      0.13904      0.09317      0.11755
   
 Atom       H101         H102         H103         H104         H105    
 Charge    0.15902      0.10662      0.08968      0.12178      0.06414
   
 Atom       H106         H107         H108         H109         H110    
 Charge    0.12665      0.12109      0.10527      0.13593      0.13541
   
 Atom       H111         H112         H113         H114         H115    
 Charge    0.13458      0.14661      0.14076      0.13857      0.11655
   
 Atom       H116         H117         H118         H119         H120    
 Charge    0.15256      0.13475      0.14192      0.14275      0.10291
   
 Atom       H121         H122         H123         H124         H125    
 Charge    0.15172      0.13558      0.13318      0.14150      0.12003
   
 Atom       H126         H127         H128         H129         H130    
 Charge    0.11818      0.15239      0.14059      0.06820      0.11668
   
 Atom       H131         H132         H133         H134         H135    
 Charge    0.14334      0.20205      0.19654      0.09656      0.15829
   
 Atom       H136         H137         H138         H139         H140    
 Charge    0.06528      0.21041      0.13973      0.18591      0.19332
   
 Atom       H141    
 Charge    0.19236
  
  sum of atomic charges:    -0.000000
   
 RMS Error   1.00E-03 hartrees
 
  Peak memory usage:    811 Mb
  
  end of program ch
   
 Time(ch)  user:       17.4  user+sys:       17.4  wallclock:       72.8
  
  start of program post
  
  Writing input files for PBF
  Peak memory usage:    757 Mb
  
  end of program post
   
 Time(post)  user:        0.9  user+sys:        0.9  wallclock:        4.1

  start of program pbf

Pbf Version 4.10

Molecular surface area:      775.77847   [A2]
Reaction field energy:       -20.18177   [kT]
  Peak memory usage: 719 Mb

  end of program pbf

 Time(pbf)  user:        6.8  user+sys:        6.9  wallclock:       26.8
  
  start of program solv
  
   number of surface charges from PBF   12912
   sum of surface charges     -0.00017
   
  nuclear repulsion energy.......   17533.946831648 hartrees
  Peak memory usage:    887 Mb
  
  end of program solv
   
 Time(solv)  user:       34.9  user+sys:       34.9  wallclock:      146.5
  
  start of program scf
  
 Energy computed with NOPS off.
  
       i  u  d  i  g                   
       t  p  i  c  r                                 RMS    maximum
       e  d  i  u  i                       energy  density   DIIS  
       r  t  s  t  d       total energy    change  change    error 
  
etot    1  N  N  1  U   -4710.10431233090           7.1E-06  1.7E-04
etot    2  N  N  1  U   -4710.10431770121  5.4E-06  0.0E+00  0.0E+00
  
  
 Energy components, in hartrees:
   (A)  Total zero-electron terms....   17536.31796811495
   (B)    Nuclear-nuclear............   17533.94683164772
   (C)    Nuclear-solvent............       2.37113646723
   (E)  Total one-electron terms.....  -41408.22875587959
   (F)    Electron-nuclear...........  -46081.24907671359
   (G)    Electron-solvent...........      -2.41312988180
   (H)    Kinetic....................    4675.43345071580
   (I)  Total two-electron terms.....   19161.80647006342
   (J)    Coulomb....................   19735.21097745364
   (K)    Exchange+Correlation.......    -573.40450739022
   (L)  Electronic energy............  -22246.42228581616  (E+I)
   (N)  Total quantum mech. energy...   -4710.10431770121  (A+L)
   (O)  Gas phase energy.............   -4710.06383246608
   (P)  Solution phase energy........   -4710.08332099393  (Q+R+S)
   (Q)    Total solute energy........   -4710.06232428665  (N-C-G)
   (R)    Total solvent energy.......      -0.02099670728  (C/2+G/2)
   (S)    Solute cavity energy.......       0.00000000000
   (U)  Reorganization energy........       0.00150817944  (Q-O)
   (V)  Solvation energy.............      -0.01948852785  (P-O)
  
 SCFE:  Solution phase energy: DFT(m06-2x)      -4710.08332099393 hartrees
        SCF iterations:   2
  
 
 HOMO energy:    -0.27326
 LUMO energy:    -0.02909
 
  Orbital energies (hartrees): 
   -68.51771   -64.94705   -63.51471   -43.45661   -27.41291   -21.99097
   -19.65377   -17.64401   -16.79029   -16.51033   -16.44556   -14.86520
   -14.86428   -14.11781   -13.95974   -13.54027   -13.52227   -13.41102
   -13.13462   -12.83002   -12.44753   -12.43753   -12.12614   -12.04320
   -11.91797   -11.44945   -11.33109   -11.33002   -11.28899   -11.25182
   -11.21546   -11.19452   -11.09164   -11.01569   -10.97443   -10.95624
   -10.90190   -10.89442   -10.84267   -10.73497   -10.71856   -10.69087
   -10.64954   -10.64520   -10.62936   -10.61947   -10.61418   -10.60551
   -10.60388   -10.58890   -10.57492   -10.54078   -10.54018   -10.53447
   -10.52068   -10.51533   -10.49491   -10.48771   -10.48771   -10.43613
   -10.42488   -10.41719   -10.40846   -10.37446   -10.36173   -10.32635
   -10.24321   -10.22070   -10.16311   -10.13670   -10.13483   -10.06981
   -10.05223   -10.01628    -9.93983    -9.92260    -9.87830    -9.80835
    -9.65544    -9.60858    -9.42506    -9.41766    -9.38954    -9.36543
    -9.28504    -9.05954    -8.93532    -8.87507    -8.76211    -8.49457
    -8.29787    -8.02723    -7.92395    -7.86499    -6.63572    -6.56081
    -6.50398    -6.31684    -6.01822    -5.70890    -4.76485    -1.15104
    -1.13679    -1.08548    -1.07843    -1.01996    -0.99988    -0.97018
    -0.95572    -0.95347    -0.93284    -0.93273    -0.91777    -0.91277
    -0.89728    -0.89511    -0.88176    -0.87663    -0.87181    -0.86363
    -0.85858    -0.85324    -0.84365    -0.83959    -0.83609    -0.83268
    -0.82977    -0.82971    -0.82461    -0.82038    -0.81774    -0.81322
    -0.80948    -0.80942    -0.80575    -0.80421    -0.80371    -0.80242
    -0.79684    -0.79479    -0.79365    -0.79283    -0.78349    -0.76816
    -0.76588    -0.73715    -0.73552    -0.73182    -0.72435    -0.72348
    -0.71242    -0.70647    -0.70525    -0.69218    -0.68081    -0.67322
    -0.66796    -0.66767    -0.65774    -0.65541    -0.65399    -0.64393
    -0.64217    -0.64122    -0.63790    -0.63619    -0.63606    -0.63296
    -0.63155    -0.63100    -0.63046    -0.62491    -0.62449    -0.62134
    -0.61935    -0.61708    -0.61119    -0.61101    -0.60515    -0.60329
    -0.60248    -0.60096    -0.60016    -0.59778    -0.59635    -0.59323
    -0.58808    -0.58794    -0.58475    -0.58024    -0.57674    -0.57026
    -0.56825    -0.55747    -0.55524    -0.55453    -0.55447    -0.54897
    -0.54861    -0.54714    -0.54483    -0.54307    -0.53630    -0.53593
    -0.53513    -0.53209    -0.53063    -0.52775    -0.52714    -0.52579
    -0.52512    -0.52428    -0.52386    -0.52176    -0.51105    -0.50788
    -0.50727    -0.50693    -0.50469    -0.50448    -0.50359    -0.50164
    -0.50009    -0.49629    -0.49525    -0.49497    -0.49361    -0.49163
    -0.49120    -0.48948    -0.48916    -0.48887    -0.48669    -0.48326
    -0.48231    -0.47977    -0.47921    -0.47827    -0.47359    -0.47357
    -0.47262    -0.47211    -0.47014    -0.47013    -0.46884    -0.46666
    -0.46085    -0.45949    -0.45802    -0.45772    -0.45539    -0.45079
    -0.44974    -0.44873    -0.44301    -0.44152    -0.44129    -0.44114
    -0.43940    -0.43875    -0.43824    -0.43516    -0.43274    -0.43148
    -0.43082    -0.42891    -0.42852    -0.42751    -0.42628    -0.42530
    -0.42196    -0.42016    -0.41957    -0.41855    -0.41666    -0.41571
    -0.41293    -0.41268    -0.41182    -0.41020    -0.40869    -0.40647
    -0.39903    -0.39009    -0.38680    -0.38576    -0.38257    -0.37536
    -0.37491    -0.37013    -0.36721    -0.36274    -0.36055    -0.35872
    -0.35338    -0.35121    -0.33682    -0.33215    -0.33049    -0.32526
    -0.32359    -0.31770    -0.31546    -0.30891    -0.30733    -0.30542
    -0.29853    -0.27326    -0.02909    -0.02163    -0.00719    -0.00674
     0.00436     0.01169     0.01361     0.01718     0.01750     0.02188
 
  Peak memory usage:   1020 Mb
  
  end of program scf
   
 Time(scf)  user:     2507.6  user+sys:     2507.6  wallclock:    10832.6
  
  start of program sole
  
    SCRF                   solvation energy
  iteration          Hartrees            kcal/mol
     0               0.0000000            0.0000
     1              -0.0182108          -11.4275
     2              -0.0194885          -12.2292
  
  solvation energy not yet converged... 
  
  Peak memory usage:    812 Mb
  
  end of program sole
   
 Time(sole)  user:        0.2  user+sys:        0.2  wallclock:        0.7
  
  start of program ch
  
  gridpoints used for charge fit        15833
    out of a possible maximum of        15833
  
   Electrostatic potential fitting constrained to reproduce
     total charge:                yes
     dipole moment:               no 
     traceless quadrupole moment: no 
     traceless octapole moment:   no 
  
  Atomic charges from electrostatic potential: 
   
 Atom       C1           C2           C3           C4           C5      
 Charge   -0.13053      0.01196     -0.17014      0.15932      0.03249
   
 Atom       C6           C7           C8           C9           C10     
 Charge   -0.21035     -0.33481     -0.12532     -0.04515     -0.11160
   
 Atom       C11          O12          Si13         C14          C15     
 Charge    0.16963     -0.21814     -0.13951      0.16480      0.09003
   
 Atom       C16          C17          C18          C19          C20     
 Charge    0.24104     -0.21091     -0.45168     -0.28010      0.06609
   
 Atom       Si21         O22          C23          C24          P25     
 Charge    0.05841     -0.15793     -0.15434     -0.10350      0.74439
   
 Atom       O26          O27          C28          C29          C30     
 Charge   -0.40325     -0.50542      0.08527      0.07971      0.24065
   
 Atom       C31          C32          C33          C34          C35     
 Charge    0.04356     -0.05241     -0.01594     -0.02273     -0.19726
   
 Atom       C36          C37          C38          C39          C40     
 Charge   -0.11360     -0.14146     -0.29877     -0.15363     -0.02441
   
 Atom       C41          C42          C43          C44          C45     
 Charge   -0.17252     -0.01935     -0.12368     -0.11997     -0.10490
   
 Atom       C46          C47          C48          C49          C50     
 Charge   -0.18605     -0.12813     -0.14106     -0.16521     -0.13927
   
 Atom       C51          C52          C53          C54          C55     
 Charge   -0.14019     -0.07197     -0.16858     -0.13222     -0.21670
   
 Atom       C56          C57          C58          C59          C60     
 Charge   -0.11941     -0.09866     -0.19999     -0.11611     -0.14191
   
 Atom       C61          C62          C63          C64          C65     
 Charge   -0.18102     -0.08413     -0.15423     -0.15486     -0.22964
   
 Atom       C66          C67          C68          C69          C70     
 Charge    0.24633     -0.04489     -0.14420     -0.15361     -0.19727
   
 Atom       N71          S72          O73          O74          C75     
 Charge   -0.48022      0.64877     -0.45977     -0.50026      0.57717
   
 Atom       C76          C77          C78          C79          N80     
 Charge   -0.44566      0.18823     -0.40873      0.38629     -0.61441
   
 Atom       N81          C82          C83          C84          C85     
 Charge   -0.15473      0.04222     -0.19096     -0.24783      0.10892
   
 Atom       H86          H87          H88          H89          H90     
 Charge    0.12044      0.15419      0.14891      0.16265      0.14543
   
 Atom       H91          H92          H93          H94          H95     
 Charge    0.14253      0.22287      0.17222      0.15337      0.14041
   
 Atom       H96          H97          H98          H99          H100    
 Charge    0.35456      0.08023      0.13901      0.09288      0.11772
   
 Atom       H101         H102         H103         H104         H105    
 Charge    0.15951      0.10701      0.08994      0.12149      0.06383
   
 Atom       H106         H107         H108         H109         H110    
 Charge    0.12705      0.12153      0.10605      0.13677      0.13614
   
 Atom       H111         H112         H113         H114         H115    
 Charge    0.13525      0.14712      0.14132      0.13916      0.11604
   
 Atom       H116         H117         H118         H119         H120    
 Charge    0.15254      0.13544      0.14240      0.14299      0.10277
   
 Atom       H121         H122         H123         H124         H125    
 Charge    0.15224      0.13613      0.13383      0.14199      0.12058
   
 Atom       H126         H127         H128         H129         H130    
 Charge    0.11844      0.15282      0.14067      0.06691      0.11659
   
 Atom       H131         H132         H133         H134         H135    
 Charge    0.14364      0.20221      0.19758      0.09679      0.15905
   
 Atom       H136         H137         H138         H139         H140    
 Charge    0.06620      0.20926      0.14075      0.18670      0.19384
   
 Atom       H141    
 Charge    0.19186
  
  sum of atomic charges:    -0.000000
   
 RMS Error   1.00E-03 hartrees
 
  Peak memory usage:    811 Mb
  
  end of program ch
   
 Time(ch)  user:       17.6  user+sys:       17.6  wallclock:       77.7
  
  start of program post
  
  Writing input files for PBF
  Peak memory usage:    757 Mb
  
  end of program post
   
 Time(post)  user:        0.8  user+sys:        0.8  wallclock:        4.3

  start of program pbf

Pbf Version 4.10

Molecular surface area:      775.77847   [A2]
Reaction field energy:       -20.55995   [kT]
  Peak memory usage: 719 Mb

  end of program pbf

 Time(pbf)  user:        6.8  user+sys:        6.8  wallclock:       26.8
  
  start of program solv
  
   number of surface charges from PBF   12912
   sum of surface charges     -0.00017
   
  nuclear repulsion energy.......   17533.946831648 hartrees
  Peak memory usage:    887 Mb
  
  end of program solv
   
 Time(solv)  user:       35.2  user+sys:       35.2  wallclock:      137.6
  
  start of program scf
  
 Energy computed with NOPS off.
  
       i  u  d  i  g                   
       t  p  i  c  r                                 RMS    maximum
       e  d  i  u  i                       energy  density   DIIS  
       r  t  s  t  d       total energy    change  change    error 
  
etot    1  N  N  1  U   -4710.10469169905           5.5E-06  1.3E-04
etot    2  N  N  1  U   -4710.10467763457 -1.4E-05  0.0E+00  0.0E+00
  
  
 Energy components, in hartrees:
   (A)  Total zero-electron terms....   17536.35732159774
   (B)    Nuclear-nuclear............   17533.94683164772
   (C)    Nuclear-solvent............       2.41048995002
   (E)  Total one-electron terms.....  -41408.05487863100
   (F)    Electron-nuclear...........  -46081.01780103333
   (G)    Electron-solvent...........      -2.45273063344
   (H)    Kinetic....................    4675.41565303577
   (I)  Total two-electron terms.....   19161.59287939869
   (J)    Coulomb....................   19734.99524700508
   (K)    Exchange+Correlation.......    -573.40236760639
   (L)  Electronic energy............  -22246.46199923231  (E+I)
   (N)  Total quantum mech. energy...   -4710.10467763457  (A+L)
   (O)  Gas phase energy.............   -4710.06383246608
   (P)  Solution phase energy........   -4710.08355729286  (Q+R+S)
   (Q)    Total solute energy........   -4710.06243695115  (N-C-G)
   (R)    Total solvent energy.......      -0.02112034171  (C/2+G/2)
   (S)    Solute cavity energy.......       0.00000000000
   (U)  Reorganization energy........       0.00139551494  (Q-O)
   (V)  Solvation energy.............      -0.01972482677  (P-O)
  
 SCFE:  Solution phase energy: DFT(m06-2x)      -4710.08355729286 hartrees
        SCF iterations:   2
  
 
 HOMO energy:    -0.26187
 LUMO energy:    -0.02911
 
  Orbital energies (hartrees): 
   -90.15059   -78.22009   -67.01199   -67.01199   -19.69867   -19.69471
   -19.65016   -19.63263   -19.62739   -19.61087   -14.78933   -14.78198
   -14.77509   -10.63142   -10.63072   -10.61908   -10.61315   -10.61229
   -10.59592   -10.59528   -10.57817   -10.57733   -10.57706   -10.57585
   -10.57483   -10.57459   -10.57072   -10.56955   -10.56782   -10.56751
   -10.56749   -10.56674   -10.56504   -10.56111   -10.56100   -10.56080
   -10.55996   -10.55817   -10.55794   -10.55750   -10.55633   -10.55514
   -10.55408   -10.55312   -10.55293   -10.55233   -10.55194   -10.55188
   -10.55168   -10.55145   -10.55135   -10.55083   -10.55034   -10.55033
   -10.55031   -10.54976   -10.54975   -10.54954   -10.54878   -10.54862
   -10.54846   -10.54839   -10.54802   -10.54800   -10.54794   -10.54788
   -10.54759   -10.54727   -10.54675   -10.54671   -10.54584   -10.54558
   -10.54528   -10.54498   -10.54358   -10.53896   -10.53844   -10.53754
   -10.53727   -10.53681   -10.53454   -10.53364   -10.53347   -10.53244
   -10.52937    -8.46145    -6.99972    -6.38320    -6.38268    -6.38231
    -5.54343    -5.54309    -5.11803    -5.11702    -5.11607    -3.85325
    -3.85296    -3.85293    -3.85262    -3.85247    -3.85243    -1.24332
    -1.22295    -1.19253    -1.14996    -1.10753    -1.08600    -1.08042
    -1.07126    -1.02461    -0.98910    -0.97386    -0.95441    -0.94857
    -0.94607    -0.94429    -0.94185    -0.94015    -0.93364    -0.92832
    -0.91789    -0.91093    -0.89699    -0.89230    -0.88168    -0.86604
    -0.85981    -0.84796    -0.84653    -0.83917    -0.83909    -0.83786
    -0.83714    -0.83683    -0.83497    -0.83452    -0.83215    -0.83129
    -0.83121    -0.82915    -0.82671    -0.82660    -0.82357    -0.82053
    -0.80777    -0.77871    -0.75484    -0.73793    -0.72486    -0.72074
    -0.71075    -0.70339    -0.69544    -0.69448    -0.68322    -0.68209
    -0.67981    -0.67947    -0.67905    -0.67666    -0.67514    -0.67269
    -0.67225    -0.67074    -0.66524    -0.66363    -0.66291    -0.66244
    -0.66066    -0.65594    -0.65593    -0.64401    -0.63368    -0.62981
    -0.62154    -0.61163    -0.60656    -0.60534    -0.59292    -0.58852
    -0.58682    -0.58348    -0.58157    -0.58052    -0.57901    -0.57758
    -0.57280    -0.57077    -0.56453    -0.56219    -0.55742    -0.55006
    -0.54816    -0.54301    -0.54032    -0.53720    -0.53108    -0.53057
    -0.52491    -0.52170    -0.52102    -0.52013    -0.51800    -0.51652
    -0.51641    -0.51557    -0.51085    -0.50980    -0.50464    -0.50389
    -0.50368    -0.50179    -0.50115    -0.50060    -0.49992    -0.49715
    -0.49702    -0.49511    -0.49165    -0.49126    -0.48822    -0.48683
    -0.48537    -0.48404    -0.48382    -0.48262    -0.48107    -0.47907
    -0.47841    -0.47601    -0.47424    -0.47263    -0.46952    -0.46651
    -0.46112    -0.45759    -0.45539    -0.45448    -0.45326    -0.45067
    -0.44787    -0.44467    -0.44224    -0.43847    -0.43810    -0.43575
    -0.43093    -0.43004    -0.42726    -0.42500    -0.42122    -0.42015
    -0.41965    -0.41542    -0.41521    -0.41203    -0.40554    -0.40333
    -0.40224    -0.39900    -0.39470    -0.39447    -0.39419    -0.39319
    -0.39268    -0.39160    -0.39039    -0.38846    -0.38740    -0.38570
    -0.38456    -0.38230    -0.37826    -0.37419    -0.37195    -0.37129
    -0.36472    -0.36122    -0.35710    -0.35141    -0.34880    -0.34592
    -0.34418    -0.34157    -0.33999    -0.33398    -0.33248    -0.32994
    -0.32274    -0.31207    -0.30955    -0.30573    -0.30481    -0.30330
    -0.30156    -0.30092    -0.29969    -0.29831    -0.29668    -0.29607
    -0.29433    -0.29371    -0.29124    -0.29001    -0.28875    -0.28348
    -0.27980    -0.26187    -0.02911    -0.02199    -0.00799    -0.00665
     0.00416     0.01124     0.01349     0.01679     0.01726     0.02112
 
  Peak memory usage:   1020 Mb
  
  end of program scf
   
 Time(scf)  user:     2455.5  user+sys:     2455.5  wallclock:     9256.8
  
  start of program sole
  
    SCRF                   solvation energy
  iteration          Hartrees            kcal/mol
     0               0.0000000            0.0000
     1              -0.0182108          -11.4275
     2              -0.0194885          -12.2292
     3              -0.0197248          -12.3775
  
  solvation energy not yet converged... 
  
  Peak memory usage:    812 Mb
  
  end of program sole
   
 Time(sole)  user:        0.1  user+sys:        0.1  wallclock:        0.6
  
  start of program ch
  
  gridpoints used for charge fit        15833
    out of a possible maximum of        15833
  
   Electrostatic potential fitting constrained to reproduce
     total charge:                yes
     dipole moment:               no 
     traceless quadrupole moment: no 
     traceless octapole moment:   no 
  
  Atomic charges from electrostatic potential: 
   
 Atom       C1           C2           C3           C4           C5      
 Charge   -0.13055      0.01236     -0.17042      0.15909      0.03218
   
 Atom       C6           C7           C8           C9           C10     
 Charge   -0.20967     -0.33390     -0.12594     -0.04517     -0.11263
   
 Atom       C11          O12          Si13         C14          C15     
 Charge    0.16921     -0.21897     -0.13869      0.16256      0.09103
   
 Atom       C16          C17          C18          C19          C20     
 Charge    0.24072     -0.21154     -0.45066     -0.27900      0.06900
   
 Atom       Si21         O22          C23          C24          P25     
 Charge    0.05931     -0.15818     -0.15503     -0.10529      0.74492
   
 Atom       O26          O27          C28          C29          C30     
 Charge   -0.40398     -0.50484      0.08685      0.07980      0.23968
   
 Atom       C31          C32          C33          C34          C35     
 Charge    0.04497     -0.05166     -0.01467     -0.02365     -0.19705
   
 Atom       C36          C37          C38          C39          C40     
 Charge   -0.11338     -0.14071     -0.29740     -0.15378     -0.02552
   
 Atom       C41          C42          C43          C44          C45     
 Charge   -0.17186     -0.01884     -0.12220     -0.12005     -0.10360
   
 Atom       C46          C47          C48          C49          C50     
 Charge   -0.18526     -0.12890     -0.14183     -0.16529     -0.13956
   
 Atom       C51          C52          C53          C54          C55     
 Charge   -0.14086     -0.07188     -0.16835     -0.13270     -0.21924
   
 Atom       C56          C57          C58          C59          C60     
 Charge   -0.11881     -0.09800     -0.20019     -0.11719     -0.14352
   
 Atom       C61          C62          C63          C64          C65     
 Charge   -0.18176     -0.08488     -0.15543     -0.15652     -0.22933
   
 Atom       C66          C67          C68          C69          C70     
 Charge    0.24976     -0.04437     -0.14580     -0.15481     -0.19936
   
 Atom       N71          S72          O73          O74          C75     
 Charge   -0.47731      0.65041     -0.45945     -0.50368      0.58048
   
 Atom       C76          C77          C78          C79          N80     
 Charge   -0.44685      0.18494     -0.41091      0.38659     -0.61123
   
 Atom       N81          C82          C83          C84          C85     
 Charge   -0.15282      0.04055     -0.19328     -0.24718      0.10861
   
 Atom       H86          H87          H88          H89          H90     
 Charge    0.12048      0.15431      0.14881      0.16231      0.14558
   
 Atom       H91          H92          H93          H94          H95     
 Charge    0.14246      0.22268      0.17230      0.15384      0.14088
   
 Atom       H96          H97          H98          H99          H100    
 Charge    0.35439      0.08068      0.13894      0.09278      0.11762
   
 Atom       H101         H102         H103         H104         H105    
 Charge    0.15922      0.10683      0.08984      0.12182      0.06339
   
 Atom       H106         H107         H108         H109         H110    
 Charge    0.12670      0.12137      0.10578      0.13645      0.13624
   
[...]
  
  end of program ch
   
 Time(ch)  user:       17.7  user+sys:       17.7  wallclock:       63.5
  
  start of program post
  
  Writing input files for PBF
  Peak memory usage:    757 Mb
  
  end of program post
   
 Time(post)  user:        0.9  user+sys:        0.9  wallclock:        4.0

  start of program pbf

Pbf Version 4.10

Molecular surface area:      775.77847   [A2]
Reaction field energy:       -20.63919   [kT]
  Peak memory usage: 719 Mb

  end of program pbf

 Time(pbf)  user:        6.9  user+sys:        7.0  wallclock:       21.4
  
  start of program solv
  
   number of surface charges from PBF   12912
   sum of surface charges     -0.00018
   
  nuclear repulsion energy.......   17533.946831648 hartrees
  Peak memory usage:    887 Mb
  
  end of program solv
   
 Time(solv)  user:       34.7  user+sys:       34.7  wallclock:      115.7
  
  start of program scf
  
 Energy computed with NOPS off.
  
       i  u  d  i  g                   
       t  p  i  c  r                                 RMS    maximum
       e  d  i  u  i                       energy  density   DIIS  
       r  t  s  t  d       total energy    change  change    error 
  
etot    1  N  N  1  U   -4710.10471838662           1.4E-05  3.3E-04
etot    2  N  Y  1  U   -4710.10460425795 -1.1E-04  9.2E-06  5.6E-04
etot    3  N  Y  1  U   -4710.10477531996  1.7E-04  3.4E-07  1.4E-05
etot    4  N  N  1  U   -4710.10477549152  1.7E-07  0.0E+00  0.0E+00
  
  
 Energy components, in hartrees:
   (A)  Total zero-electron terms....   17536.36807108083
   (B)    Nuclear-nuclear............   17533.94683164772
   (C)    Nuclear-solvent............       2.42123943310
   (E)  Total one-electron terms.....  -41408.20435741438
   (F)    Electron-nuclear...........  -46081.16441315793
   (G)    Electron-solvent...........      -2.46366219490
   (H)    Kinetic....................    4675.42371793845
   (I)  Total two-electron terms.....   19161.73151084204
   (J)    Coulomb....................   19735.13493211331
   (K)    Exchange+Correlation.......    -573.40342127127
   (L)  Electronic energy............  -22246.47284657234  (E+I)
   (N)  Total quantum mech. energy...   -4710.10477549152  (A+L)
   (O)  Gas phase energy.............   -4710.06383246608
   (P)  Solution phase energy........   -4710.08356411062  (Q+R+S)
   (Q)    Total solute energy........   -4710.06235272972  (N-C-G)
   (R)    Total solvent energy.......      -0.02121138090  (C/2+G/2)
   (S)    Solute cavity energy.......       0.00000000000
   (U)  Reorganization energy........       0.00147973636  (Q-O)
   (V)  Solvation energy.............      -0.01973164454  (P-O)
  
 SCFE:  Solution phase energy: DFT(m06-2x)      -4710.08356411062 hartrees
        SCF iterations:   4
  
 
 HOMO energy:    -0.26186
 LUMO energy:    -0.02907
 
  Orbital energies (hartrees): 
   -90.14951   -78.21980   -67.01181   -67.01091   -19.69801   -19.69506
   -19.65027   -19.63062   -19.62994   -19.60936   -14.78770   -14.77881
   -14.77348   -10.63150   -10.62974   -10.61727   -10.61291   -10.61206
   -10.59512   -10.59474   -10.57799   -10.57795   -10.57755   -10.57618
   -10.57602   -10.57524   -10.57110   -10.56972   -10.56864   -10.56825
   -10.56772   -10.56559   -10.56483   -10.56181   -10.56087   -10.56075
   -10.55983   -10.55836   -10.55825   -10.55784   -10.55652   -10.55530
   -10.55398   -10.55327   -10.55282   -10.55198   -10.55196   -10.55170
   -10.55155   -10.55141   -10.55132   -10.55110   -10.55050   -10.55036
   -10.55008   -10.54996   -10.54985   -10.54944   -10.54915   -10.54868
   -10.54841   -10.54821   -10.54808   -10.54798   -10.54790   -10.54787
   -10.54783   -10.54736   -10.54676   -10.54610   -10.54549   -10.54541
   -10.54515   -10.54486   -10.54294   -10.53940   -10.53823   -10.53729
   -10.53627   -10.53559   -10.53411   -10.53368   -10.53240   -10.53135
   -10.52845    -8.46043    -6.99942    -6.38218    -6.38166    -6.38129
    -5.54326    -5.54203    -5.11773    -5.11672    -5.11576    -3.85308
    -3.85276    -3.85245    -3.85190    -3.85140    -3.85136    -1.24298
    -1.22245    -1.19235    -1.14974    -1.10730    -1.08523    -1.07991
    -1.06994    -1.02362    -0.98920    -0.97392    -0.95412    -0.94854
    -0.94587    -0.94427    -0.94187    -0.93997    -0.93325    -0.92846
    -0.91786    -0.91115    -0.89692    -0.89186    -0.88142    -0.86569
    -0.85995    -0.84783    -0.84640    -0.83913    -0.83905    -0.83769
    -0.83713    -0.83665    -0.83499    -0.83439    -0.83199    -0.83121
    -0.83107    -0.82912    -0.82662    -0.82643    -0.82308    -0.82019
    -0.80776    -0.77831    -0.75471    -0.73754    -0.72459    -0.72052
    -0.71081    -0.70334    -0.69530    -0.69414    -0.68319    -0.68196
    -0.67980    -0.67921    -0.67882    -0.67662    -0.67498    -0.67258
    -0.67223    -0.67054    -0.66522    -0.66345    -0.66287    -0.66200
    -0.66044    -0.65589    -0.65565    -0.64374    -0.63360    -0.62931
    -0.62129    -0.61152    -0.60657    -0.60512    -0.59276    -0.58848
    -0.58678    -0.58340    -0.58154    -0.58039    -0.57893    -0.57741
    -0.57251    -0.57041    -0.56447    -0.56182    -0.55714    -0.54998
    -0.54794    -0.54300    -0.54018    -0.53697    -0.53097    -0.53029
    -0.52462    -0.52149    -0.52091    -0.52008    -0.51793    -0.51638
    -0.51618    -0.51540    -0.51074    -0.50963    -0.50461    -0.50381
    -0.50362    -0.50202    -0.50109    -0.50043    -0.49976    -0.49714
    -0.49681    -0.49496    -0.49126    -0.49090    -0.48809    -0.48666
    -0.48534    -0.48402    -0.48367    -0.48249    -0.48108    -0.47911
    -0.47827    -0.47575    -0.47407    -0.47248    -0.46917    -0.46615
    -0.46115    -0.45742    -0.45537    -0.45446    -0.45308    -0.45066
    -0.44759    -0.44449    -0.44222    -0.43832    -0.43791    -0.43553
    -0.43071    -0.43000    -0.42714    -0.42501    -0.42122    -0.41998
    -0.41948    -0.41527    -0.41498    -0.41168    -0.40550    -0.40322
    -0.40221    -0.39895    -0.39467    -0.39431    -0.39404    -0.39310
    -0.39236    -0.39135    -0.39026    -0.38844    -0.38722    -0.38561
    -0.38436    -0.38186    -0.37774    -0.37354    -0.37149    -0.37080
    -0.36418    -0.36094    -0.35682    -0.35137    -0.34869    -0.34582
    -0.34369    -0.34151    -0.33948    -0.33398    -0.33185    -0.32940
    -0.32241    -0.31143    -0.30951    -0.30571    -0.30458    -0.30307
    -0.30135    -0.30086    -0.29971    -0.29828    -0.29650    -0.29576
    -0.29414    -0.29354    -0.29094    -0.28998    -0.28834    -0.28311
    -0.27986    -0.26186    -0.02907    -0.02177    -0.00759    -0.00671
     0.00430     0.01143     0.01357     0.01704     0.01735     0.02150
 
  Peak memory usage:   1035 Mb
  
  end of program scf
   
 Time(scf)  user:     7426.8  user+sys:     7426.8  wallclock:    27853.7
  
  start of program sole
  
    SCRF                   solvation energy
  iteration          Hartrees            kcal/mol
     0               0.0000000            0.0000
     1              -0.0182108          -11.4275
     2              -0.0194885          -12.2292
     3              -0.0197248          -12.3775
     4              -0.0195259          -12.2527
     5              -0.0197316          -12.3818
  
  solvation energy not yet converged... 
  
  Peak memory usage:    812 Mb
  
  end of program sole
   
 Time(sole)  user:        0.2  user+sys:        0.2  wallclock:        0.7
  
  start of program ch
  
  gridpoints used for charge fit        15833
    out of a possible maximum of        15833
  
   Electrostatic potential fitting constrained to reproduce
     total charge:                yes
     dipole moment:               no 
     traceless quadrupole moment: no 
     traceless octapole moment:   no 
  
  Atomic charges from electrostatic potential: 
   
 Atom       C1           C2           C3           C4           C5      
 Charge   -0.13054      0.01214     -0.17029      0.15925      0.03250
   
 Atom       C6           C7           C8           C9           C10     
 Charge   -0.21012     -0.33450     -0.12564     -0.04519     -0.11223
   
 Atom       C11          O12          Si13         C14          C15     
 Charge    0.16955     -0.21859     -0.13926      0.16389      0.09048
   
 Atom       C16          C17          C18          C19          C20     
 Charge    0.24127     -0.21104     -0.45154     -0.27997      0.06726
   
 Atom       Si21         O22          C23          C24          P25     
 Charge    0.05869     -0.15815     -0.15470     -0.10402      0.74504
   
 Atom       O26          O27          C28          C29          C30     
 Charge   -0.40365     -0.50541      0.08591      0.07982      0.24051
   
 Atom       C31          C32          C33          C34          C35     
 Charge    0.04395     -0.05210     -0.01551     -0.02309     -0.19716
   
 Atom       C36          C37          C38          C39          C40     
 Charge   -0.11350     -0.14117     -0.29845     -0.15371     -0.02462
   
 Atom       C41          C42          C43          C44          C45     
 Charge   -0.17218     -0.01917     -0.12309     -0.11997     -0.10444
   
 Atom       C46          C47          C48          C49          C50     
 Charge   -0.18567     -0.12844     -0.14142     -0.16527     -0.13946
   
 Atom       C51          C52          C53          C54          C55     
 Charge   -0.14050     -0.07199     -0.16838     -0.13251     -0.21767
   
 Atom       C56          C57          C58          C59          C60     
 Charge   -0.11912     -0.09861     -0.20012     -0.11651     -0.14258
   
 Atom       C61          C62          C63          C64          C65     
 Charge   -0.18138     -0.08431     -0.15463     -0.15564     -0.22952
   
 Atom       C66          C67          C68          C69          C70     
 Charge    0.24788     -0.04479     -0.14487     -0.15400     -0.19901
   
 Atom       N71          S72          O73          O74          C75     
 Charge   -0.47842      0.64947     -0.46016     -0.50143      0.57857
   
 Atom       C76          C77          C78          C79          N80     
 Charge   -0.44617      0.18732     -0.40947      0.38646     -0.61376
   
 Atom       N81          C82          C83          C84          C85     
 Charge   -0.15417      0.04191     -0.19204     -0.24764      0.10872
   
 Atom       H86          H87          H88          H89          H90     
 Charge    0.12048      0.15431      0.14888      0.16249      0.14558
   
 Atom       H91          H92          H93          H94          H95     
 Charge    0.14251      0.22272      0.17230      0.15370      0.14069
   
 Atom       H96          H97          H98          H99          H100    
 Charge    0.35430      0.08037      0.13893      0.09279      0.11762
   
 Atom       H101         H102         H103         H104         H105    
 Charge    0.15943      0.10693      0.08986      0.12158      0.06361
   
 Atom       H106         H107         H108         H109         H110    
 Charge    0.12683      0.12140      0.10593      0.13654      0.13625
   
 Atom       H111         H112         H113         H114         H115    
 Charge    0.13538      0.14718      0.14140      0.13925      0.11596
   
 Atom       H116         H117         H118         H119         H120    
 Charge    0.15245      0.13555      0.14259      0.14294      0.10253
   
 Atom       H121         H122         H123         H124         H125    
 Charge    0.15231      0.13629      0.13400      0.14210      0.12065
   
 Atom       H126         H127         H128         H129         H130    
 Charge    0.11842      0.15305      0.14060      0.06729      0.11664
   
 Atom       H131         H132         H133         H134         H135    
 Charge    0.14384      0.20248      0.19753      0.09705      0.15899
   
 Atom       H136         H137         H138         H139         H140    
 Charge    0.06616      0.20938      0.14057      0.18713      0.19397
   
 Atom       H141    
 Charge    0.19239
  
  sum of atomic charges:    -0.000000
   
 RMS Error   1.00E-03 hartrees
 
  Peak memory usage:    811 Mb
  
  end of program ch
   
 Time(ch)  user:       17.6  user+sys:       17.6  wallclock:       61.9
  
  start of program post
  
  Writing input files for PBF
  Peak memory usage:    757 Mb
  
  end of program post
   
 Time(post)  user:        0.8  user+sys:        0.8  wallclock:        4.0

  start of program pbf

Pbf Version 4.10

Molecular surface area:      775.77847   [A2]
Reaction field energy:       -20.54285   [kT]
  Peak memory usage: 719 Mb

  end of program pbf

 Time(pbf)  user:        6.8  user+sys:        6.8  wallclock:       22.4
  
  start of program solv
  
   number of surface charges from PBF   12912
   sum of surface charges     -0.00018
   
  nuclear repulsion energy.......   17533.946831648 hartrees
  Peak memory usage:    887 Mb
  
  end of program solv
   
 Time(solv)  user:       34.6  user+sys:       34.6  wallclock:      121.7
  
  start of program scf
  
 Energy computed with NOPS off.
  
       i  u  d  i  g                   
       t  p  i  c  r                                 RMS    maximum
       e  d  i  u  i                       energy  density   DIIS  
       r  t  s  t  d       total energy    change  change    error 
  
etot    1  N  N  1  U   -4710.10468512891           8.4E-07  1.7E-05
etot    2  N  N  1  U   -4710.10468519815  6.9E-08  0.0E+00  0.0E+00
  
  
 Energy components, in hartrees:
   (A)  Total zero-electron terms....   17536.35392463476
   (B)    Nuclear-nuclear............   17533.94683164772
   (C)    Nuclear-solvent............       2.40709298704
   (E)  Total one-electron terms.....  -41408.17180616998
   (F)    Electron-nuclear...........  -46081.14582003935
   (G)    Electron-solvent...........      -2.44939834438
   (H)    Kinetic....................    4675.42341221376
   (I)  Total two-electron terms.....   19161.71319633707
   (J)    Coulomb....................   19735.11655333290
   (K)    Exchange+Correlation.......    -573.40335699584
   (L)  Electronic energy............  -22246.45860983291  (E+I)
   (N)  Total quantum mech. energy...   -4710.10468519815  (A+L)
   (O)  Gas phase energy.............   -4710.06383246608
   (P)  Solution phase energy........   -4710.08353251948  (Q+R+S)
   (Q)    Total solute energy........   -4710.06237984081  (N-C-G)
   (R)    Total solvent energy.......      -0.02115267867  (C/2+G/2)
   (S)    Solute cavity energy.......       0.00000000000
   (U)  Reorganization energy........       0.00145262527  (Q-O)
   (V)  Solvation energy.............      -0.01970005340  (P-O)
  
 SCFE:  Solution phase energy: DFT(m06-2x)      -4710.08353251948 hartrees
        SCF iterations:   2
  
 
 HOMO energy:    -0.26188
 LUMO energy:    -0.02908
 
  Orbital energies (hartrees): 
   -90.14954   -78.21982   -67.01182   -67.01093   -19.69806   -19.69502
   -19.65025   -19.63090   -19.62964   -19.60941   -14.78774   -14.77915
   -14.77353   -10.63150   -10.62984   -10.61742   -10.61285   -10.61213
   -10.59517   -10.59478   -10.57802   -10.57801   -10.57763   -10.57628
   -10.57584   -10.57535   -10.57101   -10.56969   -10.56849   -10.56819
   -10.56774   -10.56560   -10.56482   -10.56176   -10.56084   -10.56072
   -10.55993   -10.55839   -10.55816   -10.55783   -10.55648   -10.55526
   -10.55399   -10.55325   -10.55282   -10.55199   -10.55196   -10.55174
   -10.55152   -10.55140   -10.55135   -10.55106   -10.55047   -10.55035
   -10.55015   -10.54992   -10.54982   -10.54946   -10.54912   -10.54866
   -10.54842   -10.54819   -10.54807   -10.54799   -10.54789   -10.54789
   -10.54782   -10.54733   -10.54676   -10.54603   -10.54548   -10.54542
   -10.54512   -10.54492   -10.54295   -10.53935   -10.53824   -10.53731
   -10.53630   -10.53561   -10.53415   -10.53367   -10.53249   -10.53139
   -10.52842    -8.46047    -6.99944    -6.38222    -6.38169    -6.38132
    -5.54327    -5.54206    -5.11775    -5.11674    -5.11578    -3.85308
    -3.85277    -3.85245    -3.85192    -3.85143    -3.85139    -1.24301
    -1.22247    -1.19236    -1.14975    -1.10729    -1.08526    -1.07993
    -1.07005    -1.02366    -0.98923    -0.97393    -0.95414    -0.94854
    -0.94586    -0.94427    -0.94187    -0.93996    -0.93324    -0.92846
    -0.91785    -0.91110    -0.89694    -0.89189    -0.88143    -0.86570
    -0.85996    -0.84784    -0.84640    -0.83913    -0.83905    -0.83769
    -0.83713    -0.83667    -0.83499    -0.83440    -0.83199    -0.83122
    -0.83108    -0.82913    -0.82662    -0.82643    -0.82309    -0.82018
    -0.80777    -0.77832    -0.75472    -0.73756    -0.72459    -0.72054
    -0.71082    -0.70335    -0.69531    -0.69416    -0.68319    -0.68197
    -0.67980    -0.67922    -0.67883    -0.67662    -0.67498    -0.67258
    -0.67223    -0.67054    -0.66522    -0.66345    -0.66287    -0.66200
    -0.66045    -0.65589    -0.65565    -0.64376    -0.63361    -0.62933
    -0.62130    -0.61152    -0.60658    -0.60512    -0.59275    -0.58848
    -0.58679    -0.58341    -0.58154    -0.58039    -0.57893    -0.57741
    -0.57250    -0.57043    -0.56447    -0.56183    -0.55715    -0.54998
    -0.54793    -0.54301    -0.54018    -0.53698    -0.53098    -0.53031
    -0.52463    -0.52149    -0.52092    -0.52009    -0.51792    -0.51638
    -0.51619    -0.51541    -0.51074    -0.50963    -0.50461    -0.50381
    -0.50362    -0.50202    -0.50109    -0.50044    -0.49977    -0.49713
    -0.49681    -0.49495    -0.49126    -0.49092    -0.48810    -0.48666
    -0.48534    -0.48402    -0.48367    -0.48250    -0.48108    -0.47909
    -0.47827    -0.47576    -0.47407    -0.47248    -0.46919    -0.46615
    -0.46115    -0.45743    -0.45537    -0.45446    -0.45307    -0.45067
    -0.44760    -0.44448    -0.44220    -0.43832    -0.43791    -0.43554
    -0.43072    -0.43000    -0.42714    -0.42501    -0.42122    -0.41998
    -0.41949    -0.41528    -0.41499    -0.41168    -0.40550    -0.40322
    -0.40220    -0.39896    -0.39467    -0.39431    -0.39405    -0.39310
    -0.39237    -0.39136    -0.39026    -0.38843    -0.38722    -0.38561
    -0.38437    -0.38187    -0.37776    -0.37357    -0.37150    -0.37081
    -0.36420    -0.36095    -0.35684    -0.35138    -0.34868    -0.34582
    -0.34370    -0.34151    -0.33948    -0.33400    -0.33189    -0.32943
    -0.32241    -0.31145    -0.30951    -0.30571    -0.30458    -0.30307
    -0.30136    -0.30086    -0.29971    -0.29828    -0.29650    -0.29578
    -0.29415    -0.29355    -0.29094    -0.28998    -0.28834    -0.28311
    -0.27987    -0.26188    -0.02908    -0.02179    -0.00760    -0.00671
     0.00429     0.01143     0.01356     0.01704     0.01735     0.02151
 
  Peak memory usage:   1020 Mb
  
  end of program scf
   
 Time(scf)  user:     2502.0  user+sys:     2502.0  wallclock:     9382.7
  
  start of program sole
  
    SCRF                   solvation energy
  iteration          Hartrees            kcal/mol
     0               0.0000000            0.0000
     1              -0.0182108          -11.4275
     2              -0.0194885          -12.2292
     3              -0.0197248          -12.3775
     4              -0.0195259          -12.2527
     5              -0.0197316          -12.3818
     6              -0.0197001          -12.3620
  
  stopping: solvation energy converged
  
  iterations:   6    sfinal:    -12.3620 kcal/mol
  
  Peak memory usage:    812 Mb
  
  end of program sole
   
 Time(sole)  user:        0.2  user+sys:        0.2  wallclock:        0.7
  
  start of program post
  
  Writing input files for PBF
  Peak memory usage:    757 Mb
  
  end of program post
   
 Time(post)  user:        0.9  user+sys:        0.9  wallclock:        3.5

 Total cpu seconds     user:   53346.591   user+sys:   53346.591
  
 Total elapsed time:    220803 seconds

Job Toru-SiPh3-Type-I-E-2-chkp4-unrestrained-IRC-min-disp-SPE completed on tethys at Fri Mar 17 05:49:26 2017
