Command:    jaguar run jexec.py -jobname Type-II-Z-sulfonyl-bind-4-chkp-2-scan-unrestrained-SPE -nsubjobs 1 Type-II-Z-sulfonyl-bind-4-chkp-2-scan-unrestrained-SPE.in
[running at reduced cpu priority]
Release:    2017-1
Exec:       /usr/local/shared/schrodinger/current/jaguar-v9.5/bin/Linux-x86_64
Host:       tethys
JobId:      tethys-0-58c81c3e
JobDir:     /scratch/ab2144/Type-II-Z-sulfonyl-bind-4-chkp-2-scan-unrestrained-SPE
Date:       Tue Mar 14 16:37:21 2017

Contents of /scratch/ab2144/Type-II-Z-sulfonyl-bind-4-chkp-2-scan-unrestrained-SPE:
/scratch/ab2144/Type-II-Z-sulfonyl-bind-4-chkp-2-scan-unrestrained-SPE/tethys-0-58c81c3e
/scratch/ab2144/Type-II-Z-sulfonyl-bind-4-chkp-2-scan-unrestrained-SPE/Type-II-Z-sulfonyl-bind-4-chkp-2-scan-unrestrained-SPE.log
/scratch/ab2144/Type-II-Z-sulfonyl-bind-4-chkp-2-scan-unrestrained-SPE/Type-II-Z-sulfonyl-bind-4-chkp-2-scan-unrestrained-SPE.mae
/scratch/ab2144/Type-II-Z-sulfonyl-bind-4-chkp-2-scan-unrestrained-SPE/Type-II-Z-sulfonyl-bind-4-chkp-2-scan-unrestrained-SPE.in
/scratch/ab2144/Type-II-Z-sulfonyl-bind-4-chkp-2-scan-unrestrained-SPE/Type-II-Z-sulfonyl-bind-4-chkp-2-scan-unrestrained-SPE.recover
/scratch/ab2144/Type-II-Z-sulfonyl-bind-4-chkp-2-scan-unrestrained-SPE/tethys-0-58c81c3e.nodes
/scratch/ab2144/Type-II-Z-sulfonyl-bind-4-chkp-2-scan-unrestrained-SPE/tethys-0-58c81c3e.recover

Executing subprocess:
/usr/local/shared/schrodinger/current/jaguar-v9.5/bin/Linux-x86_64/jexec Type-II-Z-sulfonyl-bind-4-chkp-2-scan-unrestrained-SPE.in -cwd -out /scratch/ab2144/Type-II-Z-sulfonyl-bind-4-chkp-2-scan-unrestrained-SPE

[running at reduced cpu priority]
[running at reduced cpu priority]
Job Type-II-Z-sulfonyl-bind-4-chkp-2-scan-unrestrained-SPE started on tethys at Tue Mar 14 16:37:21 2017
jobid: tethys-0-58c81c3e 
Jaguar version 9.5, release  11
Molecular Point Group: C1      
Point Group used: C1
pre (input checking) done.
onee (1-electron integrals) done.
hfig (HF initial guess) done.
probe (project orbitals) done.
grid (grid generation) done.
rwr (Q operators) done.
scf type: DFT=M06-2X
  
       i  u  d  i  g
       t  p  i  c  r                                 RMS    maximum
       e  d  i  u  i                       energy  density   DIIS  
       r  t  s  t  d       total energy    change  change    error 
  
etot    1  N  N  1  U   -5562.72597377850           4.2E-03  1.1E-01
etot    2  N  Y  1  U   -5526.10326015267 -3.7E+01  1.7E-02  1.3E-01
etot    3  N  Y  1  U   -5314.46898219981 -2.1E+02  1.6E-02  4.4E-01
etot    4  N  Y  1  U   -5571.20067386721  2.6E+02  3.8E-03  6.3E-02
etot    5  N  Y  1  U   -5560.01759463947 -1.1E+01  3.2E-03  8.5E-02
etot    6  N  Y  1  U   -5575.07471036925  1.5E+01  6.5E-04  2.9E-02
etot    7  N  Y  1  U   -5575.41571266671  3.4E-01  2.8E-04  1.4E-02
etot    8  N  Y  1  U   -5575.53232480597  1.2E-01  9.9E-05  4.8E-03
etot    9  N  Y  1  U   -5575.55149097333  1.9E-02  5.2E-05  2.9E-03
etot   10  N  Y  1  U   -5575.55500831349  3.5E-03  2.4E-05  7.7E-04
etot   11  N  Y  1  U   -5575.55576988567  7.6E-04  8.6E-06  3.7E-04
etot   12  N  Y  1  U   -5575.55588780844  1.2E-04  3.1E-06  1.4E-04
etot   13  N  N  1  U   -5575.55589960071  1.2E-05  0.0E+00  0.0E+00
scf (DFT) done.
--------gas phase calculation complete----------------------
ch (properties) done.
post (output conversion) done.
pbf (Poisson-Boltzmann solver) done.
solv (solvation checking) done.
  
       i  u  d  i  g
       t  p  i  c  r                                 RMS    maximum
       e  d  i  u  i                       energy  density   DIIS  
       r  t  s  t  d       total energy    change  change    error 
  
etot    1  N  N  1  U   -5575.59223130146           5.2E-05  1.4E-03
etot    2  N  Y  1  U   -5575.59299876724  7.7E-04  1.8E-05  1.1E-03
etot    3  N  Y  1  U   -5575.59327031141  2.7E-04  5.6E-06  5.0E-04
etot    4  N  Y  1  U   -5575.59333012554  6.0E-05  2.4E-06  9.0E-05
etot    5  N  N  1  U   -5575.59333655527  6.4E-06  0.0E+00  0.0E+00
scf (DFT) done.
sole (solvation energy) done.
----------solvation iteration  1 complete------------------
ch (properties) done.
post (output conversion) done.
pbf (Poisson-Boltzmann solver) done.
solv (solvation checking) done.
  
       i  u  d  i  g
       t  p  i  c  r                                 RMS    maximum
       e  d  i  u  i                       energy  density   DIIS  
       r  t  s  t  d       total energy    change  change    error 
  
etot    1  N  N  1  U   -5575.59606321282           6.4E-06  1.9E-04
etot    2  N  N  1  U   -5575.59606391517  7.0E-07  0.0E+00  0.0E+00
scf (DFT) done.
sole (solvation energy) done.
----------solvation iteration  2 complete------------------
ch (properties) done.
post (output conversion) done.
pbf (Poisson-Boltzmann solver) done.
solv (solvation checking) done.
  
       i  u  d  i  g
       t  p  i  c  r                                 RMS    maximum
       e  d  i  u  i                       energy  density   DIIS  
       r  t  s  t  d       total energy    change  change    error 
  
etot    1  N  N  1  U   -5575.59643453048           6.2E-06  1.6E-04
etot    2  N  N  1  U   -5575.59641367827 -2.1E-05  0.0E+00  0.0E+00
scf (DFT) done.
sole (solvation energy) done.
----------solvation iteration  3 complete------------------
ch (properties) done.
post (output conversion) done.
pbf (Poisson-Boltzmann solver) done.
solv (solvation checking) done.
  
       i  u  d  i  g
       t  p  i  c  r                                 RMS    maximum
       e  d  i  u  i                       energy  density   DIIS  
       r  t  s  t  d       total energy    change  change    error 
  
etot    1  N  N  1  U   -5575.59627688998           9.7E-06  2.6E-04
etot    2  N  Y  1  U   -5575.59620823119 -6.9E-05  6.3E-06  4.4E-04
etot    3  N  Y  1  U   -5575.59630621252  9.8E-05  2.2E-07  1.1E-05
etot    4  N  N  1  U   -5575.59630648436  2.7E-07  0.0E+00  0.0E+00
scf (DFT) done.
sole (solvation energy) done.
----final solvation iteration  4 complete------------------
post (output conversion) done.
Job Type-II-Z-sulfonyl-bind-4-chkp-2-scan-unrestrained-SPE completed on tethys at Fri Mar 17 11:24:04 2017
Timer (jaguar_backend.py) : 240403.04 secs (2 days, 18 hrs, 46 mins, 43 secs)
Finished:   Fri Mar 17 11:24:04 2017
