Job Type-II-Z-sulfonyl-bind-4-chkp-2-scan-unrestrained-SPE started on tethys at Tue Mar 14 16:37:21 2017
jobid: tethys-0-58c81c3e

  +--------------------------------------------------------------------+
  |  Jaguar version 9.5, release  11                                   |
  |                                                                    |
  |  Copyright Schrodinger, Inc.                                       |
  |  All Rights Reserved.                                              |
  |                                                                    |
  |  The following have contributed to Jaguar (listed alphabetically): |
  |  Mike Beachy, Art Bochevarov, Dale Braden, Yixiang Cao,            |
  |  Chris Cortis, Rich Friesner, Bill Goddard, Hod Greeley,           |
  |  Tom Hughes, Leif Jacobson, Jean-Marc Langlois,                    |
  |  Daniel Mainz, Rob Murphy, Dean Philipp, Tom Pollard,              |
  |  Murco Ringnalda, Mark Watson, Haoyu Yu.                           |
  |                                                                    |
  |  Use of this program should be acknowledged in publications as:    |
  |                                                                    |
  |  Jaguar, version 9.5, Schrodinger, Inc., New York, NY, 2017.       |
  |                                                                    |
  |  A. D. Bochevarov, E. Harder, T. F. Hughes, J. R. Greenwood,       |
  |  D. A. Braden, D. M. Philipp, D. Rinaldo, M. D. Halls,             |
  |  J. Zhang, R. A. Friesner, "Jaguar: A High-Performance Quantum     |
  |  Chemistry Software Program with Strengths in Life and Materials   |
  |  Sciences", Int. J. Quantum Chem., 2013, 113(18), 2110-2142.       |
  +--------------------------------------------------------------------+
  
  start of program pre
  
  Job name: Type-II-Z-sulfonyl-bind-4-chkp-2-scan-unrestrained-SPE
  Executables used: /usr/local/shared/schrodinger/current/jaguar-v9.5/bin/Linux-x86_64
  Temporary files : /scratch/ab2144/Type-II-Z-sulfonyl-bind-4-chkp-2-scan-unrestrained-SPE
  Maestro file (input):  Type-II-Z-sulfonyl-bind-4-chkp-2-scan-unrestrained-SPE.mae
  Maestro file (output): Type-II-Z-sulfonyl-bind-4-chkp-2-scan-unrestrained-SPE.01.mae
  
  basis set:             6-31g**                         
  net molecular charge:    0
  multiplicity:            1
  
  keygrid settings 
    wispc.....   7.500E-01
    ldens.....   0
    denspc....   7.500E-01
  
   grid     daf set  nls  grid set  Q type
  ------    -------  ---  --------  ------
  coarse       1      1       1        1
  medium       2      2       2        1
  fine         3      2       3        0
  ultrafine    4      2       4        1
  charge       0      1      -1        1
  gradient     5      2       4        1
  density      0      1       0        0
  DFT-fine     0      1     -13        0
  DFT-med.     0      1     -13        0
  DFT-grad     0      1     -13        0
  DFT-der2     0      1       0        0
  DFT-cphf     0      1       0        0
  LMP2-enrg    4      2       4        1
  LMP2-grad    5      2       2        1
  DFT-cphf2    0      1       0        0
  PBF-dens     0      1       0        0
  plotting     0      1       0        0
  Rel-grad     0      1     -17        0
  
  idftgrdm  100
  ndftgrdm   50    0    0
  idftgrdf  111
  ndftgrdf   85    0    0
  idftgrdg  111
  ndftgrdg   80    3    0
  idftgrdu  433
  ndftgrdu  105    0    0
  idftgrdd  433
  ndftgrdd  105    0    0
  idftgrdc  433
  ndftgrdc   26    0    0
  idftgrdp  433
  ndftgrdp   18    0    0
  
  number of basis functions....         1680
  
 Input geometry:
                                   angstroms
  atom               x                 y                 z
  C1            1.5331000000      2.9093000000     -0.7674000000 
  C2           -0.2825000000      5.0045000000     -0.2065000000 
  C3           -0.7570000000      3.6035000000     -0.1979000000 
  C4            0.1221000000      2.5951000000     -0.3817000000 
  H5           -0.9775000000      5.8098000000     -0.0035000000 
  C6            4.5088000000     -0.0158000000     -1.7687000000 
  C7            3.8875000000     -0.0680000000     -0.5798000000 
  C8            2.7162000000      0.8159000000     -0.3307000000 
  C9            2.4326000000      1.8087000000     -1.1955000000 
  H10           5.3989000000     -0.5985000000     -1.9577000000 
  C11           1.9678000000      4.1925000000     -0.7181000000 
  C12           1.0053000000      5.2840000000     -0.4301000000 
  C13           1.4918000000      6.6783000000     -0.4199000000 
  C14           2.7829000000      6.9443000000     -0.6425000000 
  C15           3.7591000000      5.8637000000     -0.8950000000 
  C16           3.3886000000      4.5784000000     -0.9289000000 
  H17           0.8056000000      7.4956000000     -0.2319000000 
  H18           3.1261000000      7.9708000000     -0.6307000000 
  H19           4.7993000000      6.1224000000     -1.0462000000 
  H20           4.1525000000      3.8292000000     -1.0894000000 
  C21           4.0460000000      0.9146000000     -2.8175000000 
  C22           3.0666000000      1.8056000000     -2.5462000000 
  C23           2.6032000000      2.7234000000     -3.6211000000 
  C24           3.1763000000      2.6909000000     -4.8297000000 
  C25           4.2675000000      1.7372000000     -5.1080000000 
  C26           4.6799000000      0.8931000000     -4.1559000000 
  H27           1.7926000000      3.4176000000     -3.4419000000 
  H28           2.8361000000      3.3599000000     -5.6096000000 
  H29           4.7294000000      1.7195000000     -6.0867000000 
  H30           5.4776000000      0.1924000000     -4.3688000000 
  Si31         -2.5668000000      3.2982000000      0.1473000000 
  Si32          4.6654000000     -1.0035000000      0.8376000000 
  C33          -4.1583000000     -0.1146000000     -2.6506000000 
  C34          -4.6253000000     -0.0143000000     -1.4015000000 
  C35          -4.1135000000      1.0395000000     -0.5000000000 
  C36          -3.1914000000      1.9146000000     -0.9359000000 
  C37          -2.6774000000      1.7949000000     -2.3232000000 
  C38          -3.1330000000      0.8311000000     -3.1323000000 
  H39          -4.5284000000     -0.8880000000     -3.3095000000 
  H40          -5.3744000000     -0.7099000000     -1.0453000000 
  H41          -4.5060000000      1.0893000000      0.5037000000 
  H42          -1.9224000000      2.4804000000     -2.6866000000 
  H43          -2.7504000000      0.7419000000     -4.1406000000 
  C44          -3.1158000000      2.4619000000      4.7270000000 
  C45          -4.1877000000      2.6254000000      3.9435000000 
  C46          -4.0181000000      2.8586000000      2.4953000000 
  C47          -2.7878000000      2.9285000000      1.9592000000 
  C48          -1.6031000000      2.7693000000      2.8381000000 
  C49          -1.7606000000      2.5363000000      4.1467000000 
  H50          -3.2393000000      2.2827000000      5.7871000000 
  H51          -5.1825000000      2.5814000000      4.3674000000 
  H52          -4.8996000000      3.0014000000      1.8829000000 
  H53          -0.6030000000      2.8402000000      2.4331000000 
  H54          -0.8949000000      2.4139000000      4.7846000000 
  C55          -4.8636000000      7.2179000000     -1.0158000000 
  C56          -4.3526000000      6.4301000000     -1.9685000000 
  C57          -3.6324000000      5.1937000000     -1.5999000000 
  C58          -3.5002000000      4.8443000000     -0.3089000000 
  C59          -4.0521000000      5.7341000000      0.7435000000 
  C60          -4.7005000000      6.8557000000      0.4061000000 
  H61          -5.3898000000      8.1248000000     -1.2840000000 
  H62          -4.4640000000      6.6969000000     -3.0115000000 
  H63          -3.2146000000      4.5828000000     -2.3882000000 
  H64          -3.9171000000      5.5009000000      1.7903000000 
  H65          -5.0970000000      7.5061000000      1.1751000000 
  C66           8.1498000000     -3.7620000000     -0.7012000000 
  C67           8.3820000000     -2.8835000000      0.2799000000 
  C68           7.2952000000     -2.0060000000      0.7629000000 
  C69           6.0620000000     -2.0930000000      0.2319000000 
  C70           5.8226000000     -3.0543000000     -0.8743000000 
  C71           6.8095000000     -3.8453000000     -1.3121000000 
  H72           8.9451000000     -4.4047000000     -1.0560000000 
  H73           9.3665000000     -2.8140000000      0.7241000000 
  H74           7.5227000000     -1.3023000000      1.5490000000 
  H75           4.8609000000     -3.0958000000     -1.3641000000 
  H76           6.6317000000     -4.5357000000     -2.1265000000 
  C77           1.6220000000     -3.7267000000      3.1498000000 
  C78           1.9619000000     -2.5331000000      3.6470000000 
  C79           2.8782000000     -1.6519000000      2.8959000000 
  C80           3.3913000000     -2.0478000000      1.7167000000 
  C81           2.9754000000     -3.3566000000      1.1557000000 
  C82           2.1394000000     -4.1505000000      1.8357000000 
  H83           0.9524000000     -4.3750000000      3.7000000000 
  H84           1.5700000000     -2.2118000000      4.6032000000 
  H85           3.1320000000     -0.6930000000      3.3254000000 
  H86           3.3432000000     -3.6885000000      0.1995000000 
  H87           1.8406000000     -5.1056000000      1.4235000000 
  C88           6.3771000000      2.1085000000      3.9088000000 
  C89           5.9298000000      2.5294000000      2.7201000000 
  C90           5.3945000000      1.5588000000      1.7430000000 
  C91           5.3483000000      0.2487000000      2.0444000000 
  C92           5.8532000000     -0.2105000000      3.3625000000 
  C93           6.3385000000      0.6713000000      4.2447000000 
  H94           6.7695000000      2.8189000000      4.6249000000 
  H95           5.9589000000      3.5822000000      2.4705000000 
  H96           5.0536000000      1.9295000000      0.7867000000 
  H97           5.8301000000     -1.2630000000      3.6164000000 
  H98           6.7046000000      0.3332000000      5.2055000000 
  O99          -0.3230000000      1.2961000000     -0.3432000000 
  O100          2.0068000000      0.7029000000      0.8382000000 
  P101          0.4541000000      0.2247000000      0.6223000000 
  O102         -0.1525000000      0.1392000000      1.9891000000 
  N103         -3.0590000000     -2.5550000000     -0.3104000000 
  H104         -2.3177000000     -2.1862000000     -0.9482000000 
  C105         -3.0506000000     -1.9737000000      0.9287000000 
  C106         -6.2999000000     -1.3646000000      3.6255000000 
  C107         -5.0910000000     -0.6923000000      3.7895000000 
  C108         -4.0449000000     -0.9069000000      2.8939000000 
  C109         -4.1862000000     -1.8324000000      1.8378000000 
  C110         -5.4202000000     -2.4933000000      1.6723000000 
  C111         -6.4638000000     -2.2506000000      2.5555000000 
  H112         -7.1177000000     -1.1898000000      4.3183000000 
  H113         -4.9653000000      0.0025000000      4.6128000000 
  H114         -3.1262000000     -0.3381000000      2.9856000000 
  H115         -5.5610000000     -3.1798000000      0.8497000000 
  H116         -7.4136000000     -2.7555000000      2.4086000000 
  H117         -2.3778000000     -1.1197000000      0.9299000000 
  N118          0.3696000000     -1.1713000000     -0.2106000000 
  S119          0.1739000000     -1.3382000000     -1.7748000000 
  O120          0.8478000000     -0.3766000000     -2.6560000000 
  O121         -1.2411000000     -1.6593000000     -2.1298000000 
  C122          1.0465000000     -2.9605000000     -2.0604000000 
  F123          0.6652000000     -3.4438000000     -3.2542000000 
  F124          2.3681000000     -2.7708000000     -2.0805000000 
  F125          0.7419000000     -3.8570000000     -1.1210000000 
  C126         -1.4695000000     -3.0459000000      2.0500000000 
  C127         -2.1395000000     -4.1161000000      2.7015000000 
  C128         -2.2971000000     -3.7635000000      4.0363000000 
  C129         -1.6736000000     -2.5113000000      4.2052000000 
  N130         -1.1470000000     -2.1211000000      3.0358000000 
  H131         -0.8597000000     -3.0815000000      1.1570000000 
  H132         -2.4950000000     -5.0118000000      2.2136000000 
  H133         -2.8066000000     -4.3209000000      4.8088000000 
  H134         -1.5907000000     -1.8967000000      5.0909000000 
  H135         -0.6595000000     -1.2310000000      2.8047000000 
  S136         -3.3316000000     -4.2019000000     -0.7477000000 
  O137         -2.0117000000     -4.8032000000     -0.9468000000 
  O138         -4.2861000000     -4.8086000000      0.1758000000 
  C139         -5.2432000000     -3.5046000000     -4.7641000000 
  C140         -5.9669000000     -3.5745000000     -3.5707000000 
  N141         -5.3904000000     -3.7830000000     -2.3821000000 
  C142         -4.0733000000     -3.9355000000     -2.3812000000 
  C143         -3.2370000000     -3.8808000000     -3.4939000000 
  C144         -3.8581000000     -3.6537000000     -4.7228000000 
  H145         -5.7595000000     -3.3287000000     -5.7019000000 
  H146         -7.0473000000     -3.4544000000     -3.5656000000 
  H147         -2.1636000000     -3.9839000000     -3.3954000000 
  H148         -3.2649000000     -3.5909000000     -5.6293000000 
   
  principal moments of inertia:
        amu*angstrom^2:    20806.42476    26195.74913    32254.02626
                g*cm^2: 3.45498768E-36 4.34990594E-36 5.35590640E-36
   
  rotational constants:
               cm^(-1):      0.00081021      0.00064353      0.00052265
                   GHz:      0.02428957      0.01929241      0.01566871
   
  Molecular weight:    1308.28 amu
   
  Stoichiometry: Si2C73PN4H56S2O7F3
[running at reduced cpu priority]
  Molecular Point Group: C1      
  Point Group used: C1
  
  nuclear repulsion energy.......   20756.457061545 hartrees
 
 Non-default options chosen:
   SCF calculation type: DFT(m06-2x)                 
   DFT=M06-2X
   Solvation energy will be computed using PBF
     -solute cavity energy will not be included
     -surface area terms will not be included
   Highest accuracy cutoffs used in SCF
   Solvent: other                                                           
   Internal dielectric constant:    1.000
   Continuum dielectric constant:   2.380
   Solvent probe molecule radius:   2.760
  
 Temporary integer options set:
     73=  2
  
  atom       vdw   vdw2    cov     mass  grid  daf  charge   basis
  C1        1.949  1.900  0.770   12.000    Y    Y      Y    6-31g**
  C2        1.949  1.900  0.770   12.000    Y    Y      Y    6-31g**
  C3        1.949  1.900  0.770   12.000    Y    Y      Y    6-31g**
  C4        1.949  1.900  0.770   12.000    Y    Y      Y    6-31g**
  H5        1.597  1.150  0.320    1.008    Y    Y      Y    6-31g**
  C6        1.949  1.900  0.770   12.000    Y    Y      Y    6-31g**
  C7        1.949  1.900  0.770   12.000    Y    Y      Y    6-31g**
  C8        1.949  1.900  0.770   12.000    Y    Y      Y    6-31g**
  C9        1.949  1.900  0.770   12.000    Y    Y      Y    6-31g**
  H10       1.597  1.150  0.320    1.008    Y    Y      Y    6-31g**
  C11       1.949  1.900  0.770   12.000    Y    Y      Y    6-31g**
  C12       1.949  1.900  0.770   12.000    Y    Y      Y    6-31g**
  C13       1.949  1.900  0.770   12.000    Y    Y      Y    6-31g**
  C14       1.949  1.900  0.770   12.000    Y    Y      Y    6-31g**
  C15       1.949  1.900  0.770   12.000    Y    Y      Y    6-31g**
  C16       1.949  1.900  0.770   12.000    Y    Y      Y    6-31g**
  H17       1.597  1.150  0.320    1.008    Y    Y      Y    6-31g**
  H18       1.597  1.150  0.320    1.008    Y    Y      Y    6-31g**
  H19       1.597  1.150  0.320    1.008    Y    Y      Y    6-31g**
  H20       1.597  1.150  0.320    1.008    Y    Y      Y    6-31g**
  C21       1.949  1.900  0.770   12.000    Y    Y      Y    6-31g**
  C22       1.949  1.900  0.770   12.000    Y    Y      Y    6-31g**
  C23       1.949  1.900  0.770   12.000    Y    Y      Y    6-31g**
  C24       1.949  1.900  0.770   12.000    Y    Y      Y    6-31g**
  C25       1.949  1.900  0.770   12.000    Y    Y      Y    6-31g**
  C26       1.949  1.900  0.770   12.000    Y    Y      Y    6-31g**
  H27       1.597  1.150  0.320    1.008    Y    Y      Y    6-31g**
  H28       1.597  1.150  0.320    1.008    Y    Y      Y    6-31g**
  H29       1.597  1.150  0.320    1.008    Y    Y      Y    6-31g**
  H30       1.597  1.150  0.320    1.008    Y    Y      Y    6-31g**
  Si31      2.217  2.147  1.110   27.977    Y    Y      Y    6-31g**
  Si32      2.217  2.147  1.110   27.977    Y    Y      Y    6-31g**
  C33       1.949  1.900  0.770   12.000    Y    Y      Y    6-31g**
  C34       1.949  1.900  0.770   12.000    Y    Y      Y    6-31g**
  C35       1.949  1.900  0.770   12.000    Y    Y      Y    6-31g**
  C36       1.949  1.900  0.770   12.000    Y    Y      Y    6-31g**
  C37       1.949  1.900  0.770   12.000    Y    Y      Y    6-31g**
  C38       1.949  1.900  0.770   12.000    Y    Y      Y    6-31g**
  H39       1.597  1.150  0.320    1.008    Y    Y      Y    6-31g**
  H40       1.597  1.150  0.320    1.008    Y    Y      Y    6-31g**
  H41       1.597  1.150  0.320    1.008    Y    Y      Y    6-31g**
  H42       1.597  1.150  0.320    1.008    Y    Y      Y    6-31g**
  H43       1.597  1.150  0.320    1.008    Y    Y      Y    6-31g**
  C44       1.949  1.900  0.770   12.000    Y    Y      Y    6-31g**
  C45       1.949  1.900  0.770   12.000    Y    Y      Y    6-31g**
  C46       1.949  1.900  0.770   12.000    Y    Y      Y    6-31g**
  C47       1.949  1.900  0.770   12.000    Y    Y      Y    6-31g**
  C48       1.949  1.900  0.770   12.000    Y    Y      Y    6-31g**
  C49       1.949  1.900  0.770   12.000    Y    Y      Y    6-31g**
  H50       1.597  1.150  0.320    1.008    Y    Y      Y    6-31g**
  H51       1.597  1.150  0.320    1.008    Y    Y      Y    6-31g**
  H52       1.597  1.150  0.320    1.008    Y    Y      Y    6-31g**
  H53       1.597  1.150  0.320    1.008    Y    Y      Y    6-31g**
  H54       1.597  1.150  0.320    1.008    Y    Y      Y    6-31g**
  C55       1.949  1.900  0.770   12.000    Y    Y      Y    6-31g**
  C56       1.949  1.900  0.770   12.000    Y    Y      Y    6-31g**
  C57       1.949  1.900  0.770   12.000    Y    Y      Y    6-31g**
  C58       1.949  1.900  0.770   12.000    Y    Y      Y    6-31g**
  C59       1.949  1.900  0.770   12.000    Y    Y      Y    6-31g**
  C60       1.949  1.900  0.770   12.000    Y    Y      Y    6-31g**
  H61       1.597  1.150  0.320    1.008    Y    Y      Y    6-31g**
  H62       1.597  1.150  0.320    1.008    Y    Y      Y    6-31g**
  H63       1.597  1.150  0.320    1.008    Y    Y      Y    6-31g**
  H64       1.597  1.150  0.320    1.008    Y    Y      Y    6-31g**
  H65       1.597  1.150  0.320    1.008    Y    Y      Y    6-31g**
  C66       1.949  1.900  0.770   12.000    Y    Y      Y    6-31g**
  C67       1.949  1.900  0.770   12.000    Y    Y      Y    6-31g**
  C68       1.949  1.900  0.770   12.000    Y    Y      Y    6-31g**
  C69       1.949  1.900  0.770   12.000    Y    Y      Y    6-31g**
  C70       1.949  1.900  0.770   12.000    Y    Y      Y    6-31g**
  C71       1.949  1.900  0.770   12.000    Y    Y      Y    6-31g**
  H72       1.597  1.150  0.320    1.008    Y    Y      Y    6-31g**
  H73       1.597  1.150  0.320    1.008    Y    Y      Y    6-31g**
  H74       1.597  1.150  0.320    1.008    Y    Y      Y    6-31g**
  H75       1.597  1.150  0.320    1.008    Y    Y      Y    6-31g**
  H76       1.597  1.150  0.320    1.008    Y    Y      Y    6-31g**
  C77       1.949  1.900  0.770   12.000    Y    Y      Y    6-31g**
  C78       1.949  1.900  0.770   12.000    Y    Y      Y    6-31g**
  C79       1.949  1.900  0.770   12.000    Y    Y      Y    6-31g**
  C80       1.949  1.900  0.770   12.000    Y    Y      Y    6-31g**
  C81       1.949  1.900  0.770   12.000    Y    Y      Y    6-31g**
  C82       1.949  1.900  0.770   12.000    Y    Y      Y    6-31g**
  H83       1.597  1.150  0.320    1.008    Y    Y      Y    6-31g**
  H84       1.597  1.150  0.320    1.008    Y    Y      Y    6-31g**
  H85       1.597  1.150  0.320    1.008    Y    Y      Y    6-31g**
  H86       1.597  1.150  0.320    1.008    Y    Y      Y    6-31g**
  H87       1.597  1.150  0.320    1.008    Y    Y      Y    6-31g**
  C88       1.949  1.900  0.770   12.000    Y    Y      Y    6-31g**
  C89       1.949  1.900  0.770   12.000    Y    Y      Y    6-31g**
  C90       1.949  1.900  0.770   12.000    Y    Y      Y    6-31g**
  C91       1.949  1.900  0.770   12.000    Y    Y      Y    6-31g**
  C92       1.949  1.900  0.770   12.000    Y    Y      Y    6-31g**
  C93       1.949  1.900  0.770   12.000    Y    Y      Y    6-31g**
  H94       1.597  1.150  0.320    1.008    Y    Y      Y    6-31g**
  H95       1.597  1.150  0.320    1.008    Y    Y      Y    6-31g**
  H96       1.597  1.150  0.320    1.008    Y    Y      Y    6-31g**
  H97       1.597  1.150  0.320    1.008    Y    Y      Y    6-31g**
  H98       1.597  1.150  0.320    1.008    Y    Y      Y    6-31g**
  O99       1.702  1.600  0.730   15.995    Y    Y      Y    6-31g**
  O100      1.702  1.600  0.730   15.995    Y    Y      Y    6-31g**
  P101      2.147  2.074  1.060   30.974    Y    Y      Y    6-31g**
  O102      1.702  1.600  0.730   15.995    Y    Y      Y    6-31g**
  N103      1.831  1.600  0.750   14.003    Y    Y      Y    6-31g**
  H104      1.597  1.150  0.320    1.008    Y    Y      Y    6-31g**
  C105      1.949  1.900  0.770   12.000    Y    Y      Y    6-31g**
  C106      1.949  1.900  0.770   12.000    Y    Y      Y    6-31g**
  C107      1.949  1.900  0.770   12.000    Y    Y      Y    6-31g**
  C108      1.949  1.900  0.770   12.000    Y    Y      Y    6-31g**
  C109      1.949  1.900  0.770   12.000    Y    Y      Y    6-31g**
  C110      1.949  1.900  0.770   12.000    Y    Y      Y    6-31g**
  C111      1.949  1.900  0.770   12.000    Y    Y      Y    6-31g**
  H112      1.597  1.150  0.320    1.008    Y    Y      Y    6-31g**
  H113      1.597  1.150  0.320    1.008    Y    Y      Y    6-31g**
  H114      1.597  1.150  0.320    1.008    Y    Y      Y    6-31g**
  H115      1.597  1.150  0.320    1.008    Y    Y      Y    6-31g**
  H116      1.597  1.150  0.320    1.008    Y    Y      Y    6-31g**
  H117      1.597  1.150  0.320    1.008    Y    Y      Y    6-31g**
  N118      1.831  1.600  0.750   14.003    Y    Y      Y    6-31g**
  S119      2.070  1.900  1.020   31.972    Y    Y      Y    6-31g**
  O120      1.702  1.600  0.730   15.995    Y    Y      Y    6-31g**
  O121      1.702  1.600  0.730   15.995    Y    Y      Y    6-31g**
  C122      1.949  1.900  0.770   12.000    Y    Y      Y    6-31g**
  F123      1.736  1.682  0.720   18.998    Y    Y      Y    6-31g**
  F124      1.736  1.682  0.720   18.998    Y    Y      Y    6-31g**
  F125      1.736  1.682  0.720   18.998    Y    Y      Y    6-31g**
  C126      1.949  1.900  0.770   12.000    Y    Y      Y    6-31g**
  C127      1.949  1.900  0.770   12.000    Y    Y      Y    6-31g**
  C128      1.949  1.900  0.770   12.000    Y    Y      Y    6-31g**
  C129      1.949  1.900  0.770   12.000    Y    Y      Y    6-31g**
  N130      1.831  1.600  0.750   14.003    Y    Y      Y    6-31g**
  H131      1.597  1.150  0.320    1.008    Y    Y      Y    6-31g**
  H132      1.597  1.150  0.320    1.008    Y    Y      Y    6-31g**
  H133      1.597  1.150  0.320    1.008    Y    Y      Y    6-31g**
  H134      1.597  1.150  0.320    1.008    Y    Y      Y    6-31g**
  H135      1.597  1.150  0.320    1.008    Y    Y      Y    6-31g**
  S136      2.070  1.900  1.020   31.972    Y    Y      Y    6-31g**
  O137      1.702  1.600  0.730   15.995    Y    Y      Y    6-31g**
  O138      1.702  1.600  0.730   15.995    Y    Y      Y    6-31g**
  C139      1.949  1.900  0.770   12.000    Y    Y      Y    6-31g**
  C140      1.949  1.900  0.770   12.000    Y    Y      Y    6-31g**
  N141      1.831  1.600  0.750   14.003    Y    Y      Y    6-31g**
  C142      1.949  1.900  0.770   12.000    Y    Y      Y    6-31g**
  C143      1.949  1.900  0.770   12.000    Y    Y      Y    6-31g**
  C144      1.949  1.900  0.770   12.000    Y    Y      Y    6-31g**
  H145      1.597  1.150  0.320    1.008    Y    Y      Y    6-31g**
  H146      1.597  1.150  0.320    1.008    Y    Y      Y    6-31g**
  H147      1.597  1.150  0.320    1.008    Y    Y      Y    6-31g**
  H148      1.597  1.150  0.320    1.008    Y    Y      Y    6-31g**
  
  Peak memory usage:    768 Mb
  
  end of program pre
   
 Time(pre)  user:        0.9  user+sys:        0.9  wallclock:        6.4
  
  start of program onee
  
  smallest eigenvalue of S:    2.171E-04
  number of canonical orbitals.....         1673
  Peak memory usage:    900 Mb
  
  end of program onee
   
 Time(onee)  user:       17.7  user+sys:       17.7  wallclock:       62.5
  
  start of program hfig
  
  initial wavefunction generated automatically from atomic wavefunctions
 
  Irreducible     Total no   No of occupied orbitals 
  representation  orbitals   Shell_1  Shell_2    ...
  No Symm         1673        340
  ------------------------
  Orbital occupation/shell    1.000
 
  Peak memory usage:    833 Mb
  
  end of program hfig
   
 Time(hfig)  user:       28.6  user+sys:       28.6  wallclock:      117.8
  
  start of program probe
  
  Peak memory usage:    826 Mb
  
  end of program probe
   
 Time(probe)  user:       20.2  user+sys:       20.2  wallclock:       72.1
  
  start of program grid
  
   grid     grid set  grid #  grid sym
  ------    --------  ------  --------
  coarse        0        0        1
  medium        2        1        1
  fine          0        0        1
  ultrafine     4        2        1
  charge       -1        3        1
  gradient      4        2        1
  density       0        0        1
  DFT-fine    -13        4        1
  DFT-med.    -13        4        1
  DFT-grad    -13        4        1
  DFT-der2      0        0        1
  DFT-cphf      0        0        1
  LMP2-enrg     4        2        1
  LMP2-grad     2        1        1
  DFT-cphf2     0        0        1
  PBF-dens      0        0        1
  plotting      0        0        1
  Rel-grad    -17        0        1
  
  number of gridpoints: 
     atom        C1       C2       C3       C4       H5       C6       C7
  grid # 1      100       94      100       97      110       93      100
  grid # 2      356      337      360      358      426      334      361
  grid # 3       13       28       13       12      193       14        9
  grid # 4    48124    48124    48124    48124    48426    48124    48124
   
  number of gridpoints: 
     atom        C8       C9      H10      C11      C12      C13      C14
  grid # 1       95      100      109      102      102       98       94
  grid # 2      348      353      426      360      366      340      337
  grid # 3        8        7      183       32       46       48       48
  grid # 4    48124    48124    48426    48124    48124    48124    48124
   
  number of gridpoints: 
     atom       C15      C16      H17      H18      H19      H20      C21
  grid # 1       94       96      118      118      117      110      101
  grid # 2      338      338      442      450      447      427      365
  grid # 3       37       30      362      418      390      183       31
  grid # 4    48124    48124    48426    48426    48426    48426    48124
   
  number of gridpoints: 
     atom       C22      C23      C24      C25      C26      H27      H28
  grid # 1      101       96       94       94       96      111      118
  grid # 2      355      337      336      335      336      434      452
  grid # 3        7       24       36       44       39      244      418
  grid # 4    48124    48124    48124    48124    48124    48426    48426
   
  number of gridpoints: 
     atom       H29      H30     Si31     Si32      C33      C34      C35
  grid # 1      118      118      471      474       93       93       93
  grid # 2      453      445      471      474      332      332      333
  grid # 3      424      354       10        9       28       28       26
  grid # 4    48426    48426    38542    38542    48124    48124    48124
   
  number of gridpoints: 
     atom       C36      C37      C38      H39      H40      H41      H42
  grid # 1      101       95       93      112      112      108      111
  grid # 2      359      333      330      431      433      419      425
  grid # 3       13       17       25      202      235      142      176
  grid # 4    48124    48124    48124    48426    48426    48426    48426
   
  number of gridpoints: 
     atom       H43      C44      C45      C46      C47      C48      C49
  grid # 1      117       93       92       92      101       96       93
  grid # 2      450      333      332      332      359      336      334
  grid # 3      364       25       18        7       14       21       28
  grid # 4    48426    48124    48124    48124    48124    48124    48124
   
  number of gridpoints: 
     atom       H50      H51      H52      H53      H54      C55      C56
  grid # 1      116      115      112      111      117       94       94
  grid # 2      449      443      428      423      450      336      336
  grid # 3      373      312      208      183      370       43       41
  grid # 4    48426    48426    48426    48426    48426    48124    48124
   
  number of gridpoints: 
     atom       C57      C58      C59      C60      H61      H62      H63
  grid # 1       93      101       96       93      118      118      111
  grid # 2      336      359      335      336      453      453      433
  grid # 3       30       18       25       41      424      419      220
  grid # 4    48124    48124    48124    48124    48426    48426    48426
   
  number of gridpoints: 
     atom       H64      H65      C66      C67      C68      C69      C70
  grid # 1      111      118       94       94       93      101       94
  grid # 2      433      453      336      336      338      360      333
  grid # 3      237      422       49       48       34       20       21
  grid # 4    48426    48426    48124    48124    48124    48124    48124
   
  number of gridpoints: 
     atom       C71      H72      H73      H74      H75      H76      C77
  grid # 1       94      118      118      112      108      118       94
  grid # 2      336      453      452      431      416      452      333
  grid # 3       42      425      418      230      111      418       30
  grid # 4    48124    48426    48426    48426    48426    48426    48124
   
  number of gridpoints: 
     atom       C78      C79      C80      C81      C82      H83      H84
  grid # 1       93       92      101       97       93      113      115
  grid # 2      331      334      357      338      333      441      440
  grid # 3       25       15       17       29       28      292      302
  grid # 4    48124    48124    48124    48124    48124    48426    48426
   
  number of gridpoints: 
     atom       H85      H86      H87      C88      C89      C90      C91
  grid # 1      110      109      115       94       94       92      100
  grid # 2      429      416      446      335      335      338      358
  grid # 3      196      135      334       45       44       27        8
  grid # 4    48426    48426    48426    48124    48124    48124    48124
   
  number of gridpoints: 
     atom       C92      C93      H94      H95      H96      H97      H98
  grid # 1       94       92      118      118      110      112      118
  grid # 2      329      335      453      449      426      435      452
  grid # 3       10       28      425      372      167      251      421
  grid # 4    48124    48124    48426    48426    48426    48426    48426
   
  number of gridpoints: 
     atom       O99     O100     P101     O102     N103     H104     C105
  grid # 1      110      112      448      116      100       96       94
  grid # 2      431      443      448      451      355      390      329
  grid # 3       30       61        8       53        8       49        6
  grid # 4    47716    47716    38640    47716    47928    48426    48124
   
  number of gridpoints: 
     atom      C106     C107     C108     C109     C110     C111     H112
  grid # 1       96       95       95       97       95       97      118
  grid # 2      332      332      330      353      335      336      450
  grid # 3       36       30       12        8       23       37      413
  grid # 4    48124    48124    48124    48124    48124    48124    48426
   
  number of gridpoints: 
     atom      H113     H114     H115     H116     H117     N118     S119
  grid # 1      111      106      107      118      102      108      430
  grid # 2      429      411      421      450      402      399      430
  grid # 3      208      101      157      411       49       19        6
  grid # 4    48426    48426    48426    48426    48426    47928    48492
   
  number of gridpoints: 
     atom      O120     O121     C122     F123     F124     F125     C126
  grid # 1      119      116       88      533      514      515       92
  grid # 2      487      454      319      533      514      515      324
  grid # 3      143       55        7      241       99       90        6
  grid # 4    47716    47716    48124    47062    47062    47062    48124
   
  number of gridpoints: 
     atom      C127     C128     C129     N130     H131     H132     H133
  grid # 1       93       93       94       96      105      113      116
  grid # 2      329      328      327      341      413      441      459
  grid # 3        7       11        7        6       78      277      438
  grid # 4    48124    48124    48124    47928    48426    48426    48426
   
  number of gridpoints: 
     atom      H134     H135     S136     O137     O138     C139     C140
  grid # 1      114      101      446      120      119       96       96
  grid # 2      449      402      446      487      482      328      336
  grid # 3      328       69       14      167      182       29       28
  grid # 4    48426    48426    48492    47716    47716    48124    48124
   
  number of gridpoints: 
     atom      N141     C142     C143     C144     H145     H146     H147
  grid # 1      112       98       96       96      117      117      109
  grid # 2      422      359      328      329      451      453      427
  grid # 3       94       35       34       30      414      434      180
  grid # 4    47928    48124    48124    48124    48426    48426    48426
   
  number of gridpoints: 
     atom      H148    total
  grid # 1      117    18362
  grid # 2      452    57834
  grid # 3      409    19103
  grid # 4    48426  7104526
   
  Peak memory usage:    795 Mb
  
  end of program grid
   
 Time(grid)  user:     1087.7  user+sys:     1087.7  wallclock:     4592.7
  
  start of program rwr
  
  Peak memory usage:    814 Mb
  
  end of program rwr
   
 Time(rwr)  user:       72.6  user+sys:       72.6  wallclock:      333.4
  
  start of program scf
  
 number of electrons..........        680
 number of alpha electrons....        340
 number of beta electrons.....        340
 number of orbitals, total....       1673
 number of doubly-occ'd orbs..        340
 number of open shell orbs....          0
 number of occupied orbitals..        340
 number of virtual orbitals...       1333
 number of hamiltonians.......          1
 number of shells.............          1
 SCF type: DFT=M06-2X
 Energy computed with NOPS off.
  
       i  u  d  i  g                   
       t  p  i  c  r                                 RMS    maximum
       e  d  i  u  i                       energy  density   DIIS  
       r  t  s  t  d       total energy    change  change    error 
  
etot    1  N  N  1  U   -5562.72597377850           4.2E-03  1.1E-01
etot    2  N  Y  1  U   -5526.10326015267 -3.7E+01  1.7E-02  1.3E-01
etot    3  N  Y  1  U   -5314.46898219981 -2.1E+02  1.6E-02  4.4E-01
etot    4  N  Y  1  U   -5571.20067386721  2.6E+02  3.8E-03  6.3E-02
etot    5  N  Y  1  U   -5560.01759463947 -1.1E+01  3.2E-03  8.5E-02
etot    6  N  Y  1  U   -5575.07471036925  1.5E+01  6.5E-04  2.9E-02
etot    7  N  Y  1  U   -5575.41571266671  3.4E-01  2.8E-04  1.4E-02
etot    8  N  Y  1  U   -5575.53232480597  1.2E-01  9.9E-05  4.8E-03
etot    9  N  Y  1  U   -5575.55149097333  1.9E-02  5.2E-05  2.9E-03
etot   10  N  Y  1  U   -5575.55500831349  3.5E-03  2.4E-05  7.7E-04
etot   11  N  Y  1  U   -5575.55576988567  7.6E-04  8.6E-06  3.7E-04
etot   12  N  Y  1  U   -5575.55588780844  1.2E-04  3.1E-06  1.4E-04
etot   13  N  N  1  U   -5575.55589960071  1.2E-05  0.0E+00  0.0E+00
  
  
 Energy components, in hartrees:
   (A)  Nuclear repulsion............   20756.45706154535
   (E)  Total one-electron terms.....  -49040.83200779725
   (F)    Electron-nuclear...........  -54576.81338103382
   (H)    Kinetic....................    5535.98137323658
   (I)  Total two-electron terms.....   22708.81904665118
   (J)    Coulomb....................   23360.05944842630
   (K)    Exchange+Correlation.......    -651.24040177512
   (L)  Electronic energy............  -26332.01296114606  (E+I)
   (M)  -V/T.........................       2.00714860179  (-(A+F+I)/H)
   (N)  Total energy.................   -5575.55589960071  (A+L)
   (O)  Gas phase energy.............   -5575.55589960071
  
 SCFE: SCF energy: DFT(m06-2x)     -5575.55589960071 hartrees   iterations:  13
  
 
 HOMO energy:    -0.24954
 LUMO energy:    -0.06918
 
  Orbital energies (hartrees): 
   -90.17777   -90.14997   -78.20980   -67.00788   -67.00515   -25.29158
   -25.28877   -25.28753   -19.69050   -19.68689   -19.66040   -19.65587
   -19.62948   -19.61926   -19.60495   -14.81780   -14.81132   -14.79959
   -14.73937   -10.80428   -10.66518   -10.63989   -10.62427   -10.61713
   -10.61438   -10.60554   -10.59871   -10.59439   -10.59197   -10.58935
   -10.58239   -10.57204   -10.56924   -10.56893   -10.56831   -10.56469
   -10.56343   -10.56295   -10.56130   -10.56108   -10.56016   -10.55909
   -10.55492   -10.55458   -10.55440   -10.55430   -10.55275   -10.55226
   -10.55165   -10.55153   -10.55146   -10.55077   -10.55026   -10.54973
   -10.54912   -10.54758   -10.54754   -10.54746   -10.54675   -10.54656
   -10.54645   -10.54634   -10.54630   -10.54611   -10.54555   -10.54546
   -10.54489   -10.54472   -10.54452   -10.54443   -10.54400   -10.54376
   -10.54328   -10.54310   -10.54214   -10.54107   -10.53940   -10.53929
   -10.53832   -10.53709   -10.53685   -10.53653   -10.53572   -10.53553
   -10.53521   -10.53478   -10.53326   -10.53169   -10.53143   -10.52929
   -10.52777   -10.52100    -8.48831    -8.45883    -6.98894    -6.41058
    -6.40952    -6.40861    -6.38060    -6.38034    -6.38017    -5.53919
    -5.53581    -5.10733    -5.10657    -5.10481    -3.84903    -3.84862
    -3.84845    -3.84555    -3.84545    -3.84505    -1.45592    -1.36619
    -1.36325    -1.25122    -1.22724    -1.21159    -1.18439    -1.13876
    -1.10285    -1.09935    -1.09160    -1.08721    -1.06467    -0.98674
    -0.97631    -0.97320    -0.96138    -0.94661    -0.94187    -0.94114
    -0.93780    -0.93389    -0.93358    -0.92931    -0.91695    -0.90703
    -0.90655    -0.88571    -0.88471    -0.88147    -0.85355    -0.84912
    -0.84497    -0.83899    -0.83777    -0.83552    -0.83456    -0.83283
    -0.83257    -0.83102    -0.82937    -0.82577    -0.82447    -0.82373
    -0.82280    -0.82047    -0.82036    -0.81797    -0.81583    -0.81324
    -0.79680    -0.76060    -0.75831    -0.74691    -0.72721    -0.71510
    -0.70606    -0.70312    -0.70077    -0.69321    -0.68690    -0.68218
    -0.68104    -0.67935    -0.67845    -0.67599    -0.67351    -0.67226
    -0.67129    -0.66974    -0.66906    -0.66796    -0.66494    -0.66358
    -0.66268    -0.66019    -0.65816    -0.65701    -0.65272    -0.65059
    -0.64678    -0.64117    -0.63264    -0.62171    -0.61842    -0.61470
    -0.60690    -0.60029    -0.59638    -0.58683    -0.58199    -0.58060
    -0.57944    -0.57812    -0.57682    -0.57476    -0.57316    -0.57092
    -0.56939    -0.56099    -0.55802    -0.55532    -0.55077    -0.54734
    -0.54576    -0.54510    -0.53989    -0.53825    -0.53517    -0.52898
    -0.52464    -0.52408    -0.52108    -0.51940    -0.51810    -0.51677
    -0.51484    -0.51455    -0.51342    -0.51257    -0.51139    -0.50967
    -0.50820    -0.50550    -0.50384    -0.50319    -0.50223    -0.50002
    -0.49958    -0.49908    -0.49749    -0.49707    -0.49574    -0.49527
    -0.49303    -0.49131    -0.49080    -0.48932    -0.48638    -0.48569
    -0.48309    -0.48163    -0.47968    -0.47782    -0.47693    -0.47452
    -0.47194    -0.47008    -0.46902    -0.46412    -0.46272    -0.46059
    -0.45510    -0.45204    -0.45097    -0.44871    -0.44733    -0.44498
    -0.44423    -0.43847    -0.43656    -0.43446    -0.43237    -0.42921
    -0.42533    -0.42388    -0.42205    -0.42031    -0.41893    -0.41709
    -0.41552    -0.41390    -0.41226    -0.41004    -0.40921    -0.40528
    -0.40231    -0.40068    -0.39614    -0.39529    -0.39248    -0.39104
    -0.38976    -0.38879    -0.38754    -0.38496    -0.38375    -0.38260
    -0.38036    -0.37775    -0.37559    -0.37275    -0.37139    -0.37080
    -0.36734    -0.35478    -0.35282    -0.35188    -0.34902    -0.34855
    -0.34410    -0.34307    -0.34064    -0.33872    -0.33546    -0.33317
    -0.32460    -0.32080    -0.31638    -0.31490    -0.30988    -0.30354
    -0.30074    -0.29783    -0.29724    -0.29688    -0.29635    -0.29612
    -0.29303    -0.28937    -0.28625    -0.28573    -0.28432    -0.28290
    -0.27772    -0.27378    -0.26768    -0.24954    -0.06918    -0.02802
    -0.01604    -0.01036     0.00550     0.00982     0.01713     0.01811
     0.02144     0.02212
 
  Peak memory usage:   1028 Mb
  
  end of program scf
   
 Time(scf)  user:    35354.7  user+sys:    35354.7  wallclock:   151707.2
  
  start of program ch
  
  gridpoints used for charge fit        16520
    out of a possible maximum of        19103
  
   Electrostatic potential fitting constrained to reproduce
     total charge:                yes
     dipole moment:               no 
     traceless quadrupole moment: no 
     traceless octapole moment:   no 
  
  Atomic charges from electrostatic potential: 
   
 Atom       C1           C2           C3           C4           H5      
 Charge   -0.09084     -0.50448      0.27787     -0.06540      0.21627
   
 Atom       C6           C7           C8           C9           H10     
 Charge   -0.33475      0.04154      0.25556     -0.02398      0.18072
   
 Atom       C11          C12          C13          C14          C15     
 Charge    0.05375      0.26735     -0.23412     -0.12991     -0.13754
   
 Atom       C16          H17          H18          H19          H20     
 Charge   -0.14885      0.14747      0.13429      0.14017      0.09127
   
 Atom       C21          C22          C23          C24          C25     
 Charge    0.07377      0.19435     -0.20607     -0.12980     -0.15211
   
 Atom       C26          H27          H28          H29          H30     
 Charge   -0.17083      0.13863      0.13787      0.13819      0.13664
   
 Atom       Si31         Si32         C33          C34          C35     
 Charge   -0.26065     -0.13963     -0.07283     -0.16672     -0.03453
   
 Atom       C36          C37          C38          H39          H40     
 Charge   -0.03740     -0.11369     -0.13400      0.08113      0.10074
   
 Atom       H41          H42          H43          C44          C45     
 Charge    0.07026      0.13026      0.12868     -0.14165     -0.16417
   
 Atom       C46          C47          C48          C49          H50     
 Charge   -0.12257      0.18828     -0.16169     -0.12513      0.13066
   
 Atom       H51          H52          H53          H54          C55     
 Charge    0.12972      0.11976      0.12646      0.13271     -0.14032
   
 Atom       C56          C57          C58          C59          C60     
 Charge   -0.14442     -0.17551      0.23146     -0.22714     -0.11983
   
 Atom       H61          H62          H63          H64          H65     
 Charge    0.13233      0.13573      0.12897      0.12792      0.13169
   
 Atom       C66          C67          C68          C69          C70     
 Charge   -0.12212     -0.16249     -0.10393      0.08125     -0.13284
   
 Atom       C71          H72          H73          H74          H75     
 Charge   -0.13935      0.12921      0.13784      0.09578      0.12107
   
 Atom       H76          C77          C78          C79          C80     
 Charge    0.12843     -0.14126     -0.12289     -0.19333      0.22961
   
 Atom       C81          C82          H83          H84          H85     
 Charge   -0.27951     -0.07700      0.12148      0.10773      0.12459
   
 Atom       H86          H87          C88          C89          C90     
 Charge    0.13883      0.12110     -0.09137     -0.19299     -0.08180
   
 Atom       C91          C92          C93          H94          H95     
 Charge    0.05346     -0.04674     -0.19423      0.12471      0.13761
   
 Atom       H96          H97          H98          O99          O100    
 Charge    0.11241      0.09222      0.13692     -0.14063     -0.39534
   
 Atom       P101         O102         N103         H104         C105    
 Charge    1.11180     -0.64873     -0.61214      0.47042      0.44003
   
 Atom       C106         C107         C108         C109         C110    
 Charge   -0.07945     -0.19928      0.01208      0.02577     -0.02925
   
 Atom       C111         H112         H113         H114         H115    
 Charge   -0.21876      0.13543      0.13423      0.04102      0.09837
   
 Atom       H116         H117         N118         S119         O120    
 Charge    0.16136     -0.03926     -0.65444      0.64958     -0.42728
   
 Atom       O121         C122         F123         F124         F125    
 Charge   -0.48819      0.37093     -0.12386     -0.10143     -0.08648
   
 Atom       C126         C127         C128         C129         N130    
 Charge    0.04093     -0.23500     -0.21448     -0.12373     -0.06316
   
 Atom       H131         H132         H133         H134         H135    
 Charge    0.08003      0.20549      0.17906      0.17639      0.31684
   
 Atom       S136         O137         O138         C139         C140    
 Charge    0.65748     -0.43476     -0.39665     -0.46769      0.38020
   
 Atom       N141         C142         C143         C144         H145    
 Charge   -0.58362      0.58771     -0.46617      0.22498      0.20122
   
 Atom       H146         H147         H148    
 Charge    0.06692      0.20022      0.10698
  
  sum of atomic charges:    -0.000000
   
 RMS Error   9.44E-04 hartrees
 
  Peak memory usage:    816 Mb
  
  end of program ch
   
 Time(ch)  user:       19.2  user+sys:       19.2  wallclock:       90.5
  
  start of program post
  
  Writing input files for PBF
  Peak memory usage:    759 Mb
  
  end of program post
   
 Time(post)  user:        0.9  user+sys:        0.9  wallclock:        4.0

  start of program pbf

Pbf Version 4.10

Molecular surface area:      845.90257   [A2]
Reaction field energy:       -17.35585   [kT]
  Peak memory usage: 721 Mb

  end of program pbf

 Time(pbf)  user:        9.9  user+sys:       10.0  wallclock:       38.1
  
  start of program solv
  
   number of surface charges from PBF   13310
   sum of surface charges     -0.00033
   
  nuclear repulsion energy.......   20756.457061545 hartrees
  Peak memory usage:    894 Mb
  
  end of program solv
   
 Time(solv)  user:       38.7  user+sys:       38.7  wallclock:      160.6
  
  start of program scf
  
 Energy computed with NOPS off.
  
       i  u  d  i  g                   
       t  p  i  c  r                                 RMS    maximum
       e  d  i  u  i                       energy  density   DIIS  
       r  t  s  t  d       total energy    change  change    error 
  
etot    1  N  N  1  U   -5575.59223130146           5.2E-05  1.4E-03
etot    2  N  Y  1  U   -5575.59299876724  7.7E-04  1.8E-05  1.1E-03
etot    3  N  Y  1  U   -5575.59327031141  2.7E-04  5.6E-06  5.0E-04
etot    4  N  Y  1  U   -5575.59333012554  6.0E-05  2.4E-06  9.0E-05
etot    5  N  N  1  U   -5575.59333655527  6.4E-06  0.0E+00  0.0E+00
  
  
 Energy components, in hartrees:
   (A)  Total zero-electron terms....   20759.82419969386
   (B)    Nuclear-nuclear............   20756.45706154535
   (C)    Nuclear-solvent............       3.36713814851
   (E)  Total one-electron terms.....  -49045.97973939197
   (F)    Electron-nuclear...........  -54578.61634327518
   (G)    Electron-solvent...........      -3.40567542623
   (H)    Kinetic....................    5536.04227930944
   (I)  Total two-electron terms.....   22710.56220314285
   (J)    Coulomb....................   23361.82391228971
   (K)    Exchange+Correlation.......    -651.26170914687
   (L)  Electronic energy............  -26335.41753624913  (E+I)
   (N)  Total quantum mech. energy...   -5575.59333655527  (A+L)
   (O)  Gas phase energy.............   -5575.55589960071
   (P)  Solution phase energy........   -5575.57406791640  (Q+R+S)
   (Q)    Total solute energy........   -5575.55479927754  (N-C-G)
   (R)    Total solvent energy.......      -0.01926863886  (C/2+G/2)
   (S)    Solute cavity energy.......       0.00000000000
   (U)  Reorganization energy........       0.00110032317  (Q-O)
   (V)  Solvation energy.............      -0.01816831569  (P-O)
  
 SCFE:  Solution phase energy: DFT(m06-2x)      -5575.57406791640 hartrees
        SCF iterations:   5
  
 
 HOMO energy:    -0.25310
 LUMO energy:    -0.06969
 
  Orbital energies (hartrees): 
   -90.18153   -90.15532   -78.21358   -67.01057   -67.00972   -25.29710
   -25.29408   -25.29305   -19.69421   -19.69089   -19.66418   -19.65892
   -19.63338   -19.62536   -19.60782   -14.81978   -14.81135   -14.79718
   -14.74380   -10.80980   -10.66627   -10.63861   -10.62786   -10.61869
   -10.61214   -10.60424   -10.59284   -10.59083   -10.59034   -10.58567
   -10.58263   -10.57231   -10.57152   -10.57116   -10.56671   -10.56541
   -10.56450   -10.56423   -10.56192   -10.56177   -10.56120   -10.56117
   -10.55762   -10.55712   -10.55601   -10.55536   -10.55388   -10.55373
   -10.55330   -10.55326   -10.55271   -10.55256   -10.55174   -10.55116
   -10.55089   -10.55079   -10.55005   -10.54986   -10.54978   -10.54939
   -10.54899   -10.54887   -10.54853   -10.54844   -10.54835   -10.54825
   -10.54819   -10.54794   -10.54736   -10.54728   -10.54679   -10.54670
   -10.54603   -10.54602   -10.54511   -10.54341   -10.54203   -10.54195
   -10.54104   -10.54079   -10.54061   -10.54043   -10.54033   -10.53937
   -10.53892   -10.53761   -10.53655   -10.53638   -10.53458   -10.53319
   -10.53082   -10.52566    -8.49200    -8.46416    -6.99272    -6.41425
    -6.41328    -6.41223    -6.38593    -6.38566    -6.38549    -5.54186
    -5.54037    -5.11110    -5.11035    -5.10859    -3.85171    -3.85129
    -3.85113    -3.85011    -3.85001    -3.84962    -1.46136    -1.37164
    -1.36869    -1.25523    -1.23127    -1.21670    -1.18826    -1.14317
    -1.10495    -1.10304    -1.08991    -1.08903    -1.06664    -0.99109
    -0.97995    -0.97273    -0.96511    -0.94756    -0.94533    -0.94391
    -0.94165    -0.93663    -0.93382    -0.92910    -0.92023    -0.91042
    -0.90459    -0.88926    -0.88443    -0.88050    -0.85279    -0.85229
    -0.84730    -0.84217    -0.84126    -0.83733    -0.83659    -0.83593
    -0.83440    -0.83262    -0.83116    -0.82931    -0.82791    -0.82711
    -0.82651    -0.82461    -0.82301    -0.82167    -0.82001    -0.81318
    -0.80010    -0.76312    -0.75878    -0.74237    -0.73120    -0.71386
    -0.70909    -0.70389    -0.70245    -0.69669    -0.69036    -0.68750
    -0.68582    -0.68049    -0.67978    -0.67861    -0.67555    -0.67395
    -0.67368    -0.67226    -0.67138    -0.67022    -0.66736    -0.66624
    -0.66477    -0.66137    -0.66041    -0.65977    -0.65658    -0.65091
    -0.64932    -0.64265    -0.63399    -0.62505    -0.61946    -0.61434
    -0.60894    -0.60347    -0.59936    -0.58771    -0.58265    -0.58107
    -0.58036    -0.57967    -0.57767    -0.57728    -0.57547    -0.57328
    -0.57095    -0.56625    -0.56162    -0.55932    -0.55397    -0.54974
    -0.54648    -0.54586    -0.54194    -0.53875    -0.53741    -0.53348
    -0.52876    -0.52666    -0.52457    -0.52224    -0.52092    -0.51923
    -0.51754    -0.51607    -0.51451    -0.51353    -0.51293    -0.51240
    -0.51112    -0.50618    -0.50572    -0.50440    -0.50388    -0.50233
    -0.50157    -0.50056    -0.49963    -0.49888    -0.49597    -0.49520
    -0.49365    -0.49317    -0.49255    -0.49078    -0.48942    -0.48894
    -0.48385    -0.48301    -0.48266    -0.48063    -0.47985    -0.47666
    -0.47438    -0.47279    -0.46776    -0.46634    -0.46446    -0.45971
    -0.45609    -0.45366    -0.45288    -0.45197    -0.44942    -0.44714
    -0.44636    -0.44124    -0.43976    -0.43714    -0.43451    -0.43171
    -0.42834    -0.42696    -0.42505    -0.42406    -0.42114    -0.42024
    -0.41895    -0.41663    -0.41584    -0.41258    -0.41076    -0.40857
    -0.40460    -0.40422    -0.39908    -0.39721    -0.39364    -0.39313
    -0.39260    -0.39131    -0.39026    -0.38804    -0.38689    -0.38508
    -0.38343    -0.38169    -0.37980    -0.37610    -0.37485    -0.37079
    -0.36792    -0.35790    -0.35602    -0.35272    -0.35222    -0.34902
    -0.34604    -0.34543    -0.34310    -0.34115    -0.33954    -0.33676
    -0.32612    -0.32384    -0.31634    -0.31535    -0.31397    -0.30534
    -0.30362    -0.30227    -0.30159    -0.30037    -0.29897    -0.29775
    -0.29747    -0.29244    -0.28974    -0.28931    -0.28793    -0.28726
    -0.28126    -0.27558    -0.27158    -0.25310    -0.06969    -0.02525
    -0.01940    -0.00626     0.00136     0.00726     0.01505     0.01716
     0.01811     0.01920
 
  Peak memory usage:   1029 Mb
  
  end of program scf
   
 Time(scf)  user:    11159.9  user+sys:    11159.9  wallclock:    42748.3
  
  start of program sole
  
    SCRF                   solvation energy
  iteration          Hartrees            kcal/mol
     0               0.0000000            0.0000
     1              -0.0181683          -11.4008
  
  solvation energy not yet converged... 
  
  Peak memory usage:    813 Mb
  
  end of program sole
   
 Time(sole)  user:        0.2  user+sys:        0.2  wallclock:        0.5
  
  start of program ch
  
  gridpoints used for charge fit        16520
    out of a possible maximum of        16520
  
   Electrostatic potential fitting constrained to reproduce
     total charge:                yes
     dipole moment:               no 
     traceless quadrupole moment: no 
     traceless octapole moment:   no 
  
  Atomic charges from electrostatic potential: 
   
 Atom       C1           C2           C3           C4           H5      
 Charge   -0.08772     -0.51998      0.30004     -0.08177      0.22425
   
 Atom       C6           C7           C8           C9           H10     
 Charge   -0.34846      0.05793      0.25325     -0.02397      0.18561
   
 Atom       C11          C12          C13          C14          C15     
 Charge    0.05144      0.27053     -0.24563     -0.13295     -0.14587
   
 Atom       C16          H17          H18          H19          H20     
 Charge   -0.14677      0.15499      0.14225      0.14866      0.09179
   
 Atom       C21          C22          C23          C24          C25     
 Charge    0.07608      0.19495     -0.21060     -0.13761     -0.15953
   
 Atom       C26          H27          H28          H29          H30     
 Charge   -0.17879      0.14120      0.14682      0.14674      0.14335
   
 Atom       Si31         Si32         C33          C34          C35     
 Charge   -0.28258     -0.15977     -0.07491     -0.17846     -0.03864
   
 Atom       C36          C37          C38          H39          H40     
 Charge   -0.03482     -0.11704     -0.14074      0.08421      0.10682
   
 Atom       H41          H42          H43          C44          C45     
 Charge    0.07460      0.13326      0.13405     -0.14910     -0.17285
   
 Atom       C46          C47          C48          C49          H50     
 Charge   -0.12006      0.19581     -0.17484     -0.12822      0.13985
   
 Atom       H51          H52          H53          H54          C55     
 Charge    0.13789      0.12171      0.12785      0.13888     -0.14931
   
 Atom       C56          C57          C58          C59          C60     
 Charge   -0.15050     -0.18302      0.23523     -0.23293     -0.12591
   
 Atom       H61          H62          H63          H64          H65     
 Charge    0.14082      0.14391      0.13339      0.13048      0.13974
   
 Atom       C66          C67          C68          C69          C70     
 Charge   -0.12844     -0.17290     -0.10486      0.08136     -0.13441
   
 Atom       C71          H72          H73          H74          H75     
 Charge   -0.14651      0.13803      0.14713      0.09545      0.12296
   
 Atom       H76          C77          C78          C79          C80     
 Charge    0.13656     -0.14965     -0.12967     -0.19814      0.23868
   
 Atom       C81          C82          H83          H84          H85     
 Charge   -0.29238     -0.08069      0.12704      0.11521      0.12776
   
 Atom       H86          H87          C88          C89          C90     
 Charge    0.14170      0.12599     -0.09698     -0.20168     -0.08430
   
 Atom       C91          C92          C93          H94          H95     
 Charge    0.05675     -0.04403     -0.20307      0.13278      0.14448
   
 Atom       H96          H97          H98          O99          O100    
 Charge    0.11195      0.09402      0.14528     -0.12666     -0.39349
   
 Atom       P101         O102         N103         H104         C105    
 Charge    1.09972     -0.64247     -0.61317      0.47254      0.44789
   
 Atom       C106         C107         C108         C109         C110    
 Charge   -0.08143     -0.20452      0.01199      0.02597     -0.03611
   
 Atom       C111         H112         H113         H114         H115    
 Charge   -0.22414      0.14391      0.14080      0.04377      0.09816
   
 Atom       H116         H117         N118         S119         O120    
 Charge    0.16982     -0.04538     -0.63982      0.63935     -0.43669
   
 Atom       O121         C122         F123         F124         F125    
 Charge   -0.48428      0.37209     -0.12502     -0.10110     -0.08539
   
 Atom       C126         C127         C128         C129         N130    
 Charge    0.05593     -0.25331     -0.21126     -0.13678     -0.04719
   
 Atom       H131         H132         H133         H134         H135    
 Charge    0.07292      0.21106      0.18621      0.18864      0.30912
   
 Atom       S136         O137         O138         C139         C140    
 Charge    0.67203     -0.45388     -0.41603     -0.46847      0.38957
   
 Atom       N141         C142         C143         C144         H145    
 Charge   -0.61048      0.59715     -0.47541      0.22971      0.21087
   
 Atom       H146         H147         H148    
 Charge    0.07560      0.20051      0.11675
  
  sum of atomic charges:    -0.000000
   
 RMS Error   9.54E-04 hartrees
 
  Peak memory usage:    816 Mb
  
  end of program ch
   
 Time(ch)  user:       19.7  user+sys:       19.7  wallclock:       66.3
  
  start of program post
  
  Writing input files for PBF
  Peak memory usage:    759 Mb
  
  end of program post
   
 Time(post)  user:        0.9  user+sys:        0.9  wallclock:        3.8

  start of program pbf

Pbf Version 4.10

Molecular surface area:      845.90257   [A2]
Reaction field energy:       -19.92236   [kT]
  Peak memory usage: 721 Mb

  end of program pbf

 Time(pbf)  user:       13.1  user+sys:       13.3  wallclock:       44.6
  
  start of program solv
  
   number of surface charges from PBF   13310
   sum of surface charges     -0.00034
   
  nuclear repulsion energy.......   20756.457061545 hartrees
  Peak memory usage:    894 Mb
  
  end of program solv
   
 Time(solv)  user:       38.2  user+sys:       38.2  wallclock:      134.2
  
  start of program scf
  
 Energy computed with NOPS off.
  
       i  u  d  i  g                   
       t  p  i  c  r                                 RMS    maximum
       e  d  i  u  i                       energy  density   DIIS  
       r  t  s  t  d       total energy    change  change    error 
  
etot    1  N  N  1  U   -5575.59606321282           6.4E-06  1.9E-04
etot    2  N  N  1  U   -5575.59606391517  7.0E-07  0.0E+00  0.0E+00
  
  
 Energy components, in hartrees:
   (A)  Total zero-electron terms....   20760.18787826633
   (B)    Nuclear-nuclear............   20756.45706154535
   (C)    Nuclear-solvent............       3.73081672098
   (E)  Total one-electron terms.....  -49046.78432671372
   (F)    Electron-nuclear...........  -54579.06268753762
   (G)    Electron-solvent...........      -3.77242333563
   (H)    Kinetic....................    5536.05078415953
   (I)  Total two-electron terms.....   22711.00038453222
   (J)    Coulomb....................   23362.26361508707
   (K)    Exchange+Correlation.......    -651.26323055485
   (L)  Electronic energy............  -26335.78394218150  (E+I)
   (N)  Total quantum mech. energy...   -5575.59606391517  (A+L)
   (O)  Gas phase energy.............   -5575.55589960071
   (P)  Solution phase energy........   -5575.57526060784  (Q+R+S)
   (Q)    Total solute energy........   -5575.55445730052  (N-C-G)
   (R)    Total solvent energy.......      -0.02080330733  (C/2+G/2)
   (S)    Solute cavity energy.......       0.00000000000
   (U)  Reorganization energy........       0.00144230019  (Q-O)
   (V)  Solvation energy.............      -0.01936100714  (P-O)
  
 SCFE:  Solution phase energy: DFT(m06-2x)      -5575.57526060784 hartrees
        SCF iterations:   2
  
 
 HOMO energy:    -0.28029
 LUMO energy:    -0.06898
 
  Orbital energies (hartrees): 
   -56.07071   -46.08004   -42.70715   -41.15996   -36.57519   -29.88321
   -28.90802   -28.35346   -27.41606   -26.15461   -25.99755   -25.97084
   -22.27974   -21.86447   -20.94865   -20.14401   -19.09831   -18.14507
   -16.02375   -15.40884   -15.26978   -15.23710   -14.95015   -14.56278
   -14.40899   -14.39510   -14.28698   -14.12481   -14.10057   -14.09696
   -14.08617   -13.63498   -13.51489   -12.80902   -12.73905   -12.36945
   -12.14421   -11.92068   -11.90098   -11.77896   -11.74948   -11.64977
   -11.61953   -11.53859   -11.20590   -11.17013   -11.06252   -11.03226
   -10.98324   -10.98226   -10.97752   -10.81887   -10.81345   -10.73034
   -10.66936   -10.66593   -10.64357   -10.64217   -10.62552   -10.61734
   -10.61365   -10.61234   -10.60800   -10.60430   -10.59740   -10.54754
   -10.54629   -10.53332   -10.51779   -10.48686   -10.46137   -10.45399
   -10.44807   -10.43749   -10.41121   -10.40338   -10.40200   -10.37871
   -10.30184   -10.27056   -10.12157   -10.07776   -10.04244    -9.92480
    -9.85152    -9.82113    -9.76168    -9.67101    -9.61714    -9.61116
    -9.21390    -9.16769    -8.96926    -8.94963    -8.90144    -8.83738
    -8.74237    -8.68285    -8.60450    -8.39681    -8.39479    -8.13517
    -8.05457    -7.87268    -7.67235    -7.43513    -7.42767    -7.00683
    -6.60735    -6.54810    -6.36211    -5.33587    -2.97458    -1.47520
    -1.31295    -1.12278    -1.07968    -1.07607    -0.99604    -0.99141
    -0.99090    -0.96578    -0.96379    -0.94930    -0.93373    -0.93358
    -0.93241    -0.91171    -0.90828    -0.89451    -0.89180    -0.88217
    -0.88169    -0.86833    -0.86418    -0.86388    -0.86068    -0.85343
    -0.85168    -0.84267    -0.81836    -0.81740    -0.80734    -0.79558
    -0.79133    -0.78923    -0.78541    -0.78540    -0.77946    -0.77719
    -0.77443    -0.77435    -0.77332    -0.77314    -0.77104    -0.76940
    -0.76922    -0.76239    -0.75746    -0.75661    -0.75360    -0.75071
    -0.74787    -0.73902    -0.73648    -0.72587    -0.72240    -0.72194
    -0.71787    -0.71154    -0.71119    -0.70747    -0.70674    -0.70251
    -0.70088    -0.69845    -0.69560    -0.68489    -0.68006    -0.67907
    -0.67579    -0.67174    -0.67049    -0.66066    -0.65999    -0.65543
    -0.65150    -0.65114    -0.64997    -0.64603    -0.64523    -0.64471
    -0.64458    -0.64189    -0.63106    -0.62893    -0.62820    -0.62787
    -0.62598    -0.62551    -0.62533    -0.62307    -0.62257    -0.61719
    -0.61598    -0.59994    -0.59991    -0.59734    -0.59477    -0.59326
    -0.59247    -0.59087    -0.58773    -0.58517    -0.58306    -0.58080
    -0.57956    -0.57518    -0.57160    -0.57098    -0.56925    -0.56911
    -0.56684    -0.56670    -0.55890    -0.55580    -0.55350    -0.55283
    -0.55172    -0.54965    -0.54762    -0.54420    -0.53822    -0.53815
    -0.53646    -0.53404    -0.53036    -0.52991    -0.52165    -0.52163
    -0.52127    -0.51793    -0.51731    -0.51656    -0.51556    -0.50955
    -0.50946    -0.50749    -0.50699    -0.50619    -0.50607    -0.50532
    -0.50288    -0.50154    -0.50008    -0.49960    -0.49848    -0.49691
    -0.49533    -0.49500    -0.49434    -0.49063    -0.49048    -0.49005
    -0.48921    -0.48914    -0.48827    -0.48517    -0.48399    -0.48203
    -0.47705    -0.47705    -0.47664    -0.47641    -0.47637    -0.47571
    -0.47426    -0.47321    -0.47239    -0.47088    -0.46853    -0.46795
    -0.46659    -0.46443    -0.46420    -0.46155    -0.46019    -0.45901
    -0.45880    -0.45652    -0.45622    -0.45507    -0.45382    -0.45318
    -0.45302    -0.45231    -0.44712    -0.44532    -0.44454    -0.44373
    -0.44213    -0.44071    -0.44045    -0.43960    -0.43344    -0.43288
    -0.42681    -0.42556    -0.42271    -0.41964    -0.41760    -0.41731
    -0.41194    -0.40974    -0.40778    -0.39102    -0.39031    -0.38841
    -0.37950    -0.36860    -0.34727    -0.34695    -0.34631    -0.34556
    -0.33816    -0.32353    -0.31845    -0.31600    -0.31182    -0.31145
    -0.30768    -0.30726    -0.30349    -0.30346    -0.30303    -0.30158
    -0.29987    -0.29240    -0.28789    -0.28029    -0.06898    -0.02458
    -0.01940    -0.00568     0.00131     0.00734     0.01505     0.01734
     0.01813     0.01930
 
  Peak memory usage:   1029 Mb
  
  end of program scf
   
 Time(scf)  user:     2807.9  user+sys:     2807.9  wallclock:    10553.4
  
  start of program sole
  
    SCRF                   solvation energy
  iteration          Hartrees            kcal/mol
     0               0.0000000            0.0000
     1              -0.0181683          -11.4008
     2              -0.0193610          -12.1492
  
  solvation energy not yet converged... 
  
  Peak memory usage:    813 Mb
  
  end of program sole
   
 Time(sole)  user:        0.2  user+sys:        0.2  wallclock:        0.8
  
  start of program ch
  
  gridpoints used for charge fit        16520
    out of a possible maximum of        16520
  
   Electrostatic potential fitting constrained to reproduce
     total charge:                yes
     dipole moment:               no 
     traceless quadrupole moment: no 
     traceless octapole moment:   no 
  
  Atomic charges from electrostatic potential: 
   
 Atom       C1           C2           C3           C4           H5      
 Charge   -0.08810     -0.52067      0.30123     -0.08377      0.22491
   
 Atom       C6           C7           C8           C9           H10     
 Charge   -0.34918      0.05836      0.25328     -0.02482      0.18602
   
 Atom       C11          C12          C13          C14          C15     
 Charge    0.05158      0.27093     -0.24644     -0.13213     -0.14522
   
 Atom       C16          H17          H18          H19          H20     
 Charge   -0.14748      0.15542      0.14286      0.14920      0.09169
   
 Atom       C21          C22          C23          C24          C25     
 Charge    0.07595      0.19499     -0.21166     -0.13704     -0.15912
   
 Atom       C26          H27          H28          H29          H30     
 Charge   -0.17945      0.14133      0.14745      0.14737      0.14371
   
 Atom       Si31         Si32         C33          C34          C35     
 Charge   -0.28429     -0.16162     -0.07375     -0.18041     -0.03896
   
 Atom       C36          C37          C38          H39          H40     
 Charge   -0.03501     -0.11735     -0.14065      0.08440      0.10732
   
 Atom       H41          H42          H43          C44          C45     
 Charge    0.07481      0.13330      0.13436     -0.14865     -0.17275
   
 Atom       C46          C47          C48          C49          H50     
 Charge   -0.11999      0.19517     -0.17717     -0.12748      0.14073
   
 Atom       H51          H52          H53          H54          C55     
 Charge    0.13860      0.12172      0.12788      0.13918     -0.14915
   
 Atom       C56          C57          C58          C59          C60     
 Charge   -0.15083     -0.18348      0.23466     -0.23392     -0.12559
   
 Atom       H61          H62          H63          H64          H65     
 Charge    0.14142      0.14451      0.13347      0.13067      0.14031
   
 Atom       C66          C67          C68          C69          C70     
 Charge   -0.12794     -0.17346     -0.10434      0.08006     -0.13535
   
 Atom       C71          H72          H73          H74          H75     
 Charge   -0.14636      0.13875      0.14788      0.09496      0.12301
   
 Atom       H76          C77          C78          C79          C80     
 Charge    0.13714     -0.15014     -0.12882     -0.19835      0.23861
   
 Atom       C81          C82          H83          H84          H85     
 Charge   -0.29396     -0.08110      0.12751      0.11588      0.12825
   
 Atom       H86          H87          C88          C89          C90     
 Charge    0.14165      0.12612     -0.09641     -0.20229     -0.08484
   
 Atom       C91          C92          C93          H94          H95     
 Charge    0.05655     -0.04419     -0.20282      0.13342      0.14488
   
 Atom       H96          H97          H98          O99          O100    
 Charge    0.11164      0.09397      0.14596     -0.12588     -0.39282
   
 Atom       P101         O102         N103         H104         C105    
 Charge    1.09747     -0.64079     -0.61214      0.47217      0.44490
   
 Atom       C106         C107         C108         C109         C110    
 Charge   -0.07937     -0.20346      0.01203      0.02519     -0.03940
   
 Atom       C111         H112         H113         H114         H115    
 Charge   -0.22350      0.14445      0.14149      0.04419      0.09828
   
 Atom       H116         H117         N118         S119         O120    
 Charge    0.17024     -0.04553     -0.63889      0.63846     -0.43693
   
 Atom       O121         C122         F123         F124         F125    
 Charge   -0.48350      0.37211     -0.12502     -0.10113     -0.08541
   
 Atom       C126         C127         C128         C129         N130    
 Charge    0.05799     -0.25641     -0.20890     -0.13403     -0.04695
   
 Atom       H131         H132         H133         H134         H135    
 Charge    0.07183      0.21091      0.18652      0.18922      0.30838
   
 Atom       S136         O137         O138         C139         C140    
 Charge    0.66870     -0.45358     -0.41670     -0.46547      0.39014
   
 Atom       N141         C142         C143         C144         H145    
 Charge   -0.61354      0.59504     -0.47625      0.23102      0.21179
   
 Atom       H146         H147         H148    
 Charge    0.07658      0.20041      0.11758
  
  sum of atomic charges:    -0.000000
   
 RMS Error   9.54E-04 hartrees
 
  Peak memory usage:    816 Mb
  
  end of program ch
   
 Time(ch)  user:       19.3  user+sys:       19.3  wallclock:       68.0
  
  start of program post
  
  Writing input files for PBF
  Peak memory usage:    759 Mb
  
  end of program post
   
 Time(post)  user:        0.8  user+sys:        0.8  wallclock:        4.4

  start of program pbf

Pbf Version 4.10

Molecular surface area:      845.90257   [A2]
Reaction field energy:       -20.29247   [kT]
  Peak memory usage: 721 Mb

  end of program pbf

 Time(pbf)  user:       12.7  user+sys:       12.9  wallclock:       44.1
  
  start of program solv
  
   number of surface charges from PBF   13310
   sum of surface charges     -0.00035
   
  nuclear repulsion energy.......   20756.457061545 hartrees
  Peak memory usage:    894 Mb
  
  end of program solv
   
 Time(solv)  user:       37.8  user+sys:       37.8  wallclock:      129.2
  
  start of program scf
  
 Energy computed with NOPS off.
  
       i  u  d  i  g                   
       t  p  i  c  r                                 RMS    maximum
       e  d  i  u  i                       energy  density   DIIS  
       r  t  s  t  d       total energy    change  change    error 
  
etot    1  N  N  1  U   -5575.59643453048           6.2E-06  1.6E-04
etot    2  N  N  1  U   -5575.59641367827 -2.1E-05  0.0E+00  0.0E+00
  
  
 Energy components, in hartrees:
   (A)  Total zero-electron terms....   20760.25961105786
   (B)    Nuclear-nuclear............   20756.45706154535
   (C)    Nuclear-solvent............       3.80254951250
   (E)  Total one-electron terms.....  -49046.40900874489
   (F)    Electron-nuclear...........  -54578.60343159579
   (G)    Electron-solvent...........      -3.84437293337
   (H)    Kinetic....................    5536.03879578428
   (I)  Total two-electron terms.....   22710.55298400875
   (J)    Coulomb....................   23361.81560260522
   (K)    Exchange+Correlation.......    -651.26261859647
   (L)  Electronic energy............  -26335.85602473613  (E+I)
   (N)  Total quantum mech. energy...   -5575.59641367827  (A+L)
   (O)  Gas phase energy.............   -5575.55589960071
   (P)  Solution phase energy........   -5575.57550196784  (Q+R+S)
   (Q)    Total solute energy........   -5575.55459025741  (N-C-G)
   (R)    Total solvent energy.......      -0.02091171043  (C/2+G/2)
   (S)    Solute cavity energy.......       0.00000000000
   (U)  Reorganization energy........       0.00130934330  (Q-O)
   (V)  Solvation energy.............      -0.01960236713  (P-O)
  
 SCFE:  Solution phase energy: DFT(m06-2x)      -5575.57550196784 hartrees
        SCF iterations:   2
  
 
 HOMO energy:    -0.25379
 LUMO energy:    -0.07059
 
  Orbital energies (hartrees): 
   -90.18376   -90.15656   -78.21468   -67.01159   -67.01093   -25.29817
   -25.29490   -25.29428   -19.69571   -19.69170   -19.66582   -19.65933
   -19.63422   -19.62629   -19.60777   -14.82304   -14.81130   -14.79920
   -14.74525   -10.81091   -10.66907   -10.64082   -10.62928   -10.61997
   -10.61141   -10.60224   -10.59157   -10.59156   -10.59133   -10.58455
   -10.58366   -10.57323   -10.57225   -10.57133   -10.56655   -10.56604
   -10.56559   -10.56518   -10.56203   -10.56199   -10.56095   -10.56047
   -10.55805   -10.55796   -10.55687   -10.55561   -10.55386   -10.55331
   -10.55327   -10.55295   -10.55274   -10.55211   -10.55164   -10.55105
   -10.55101   -10.55077   -10.55066   -10.55048   -10.55005   -10.54957
   -10.54916   -10.54906   -10.54889   -10.54888   -10.54883   -10.54869
   -10.54859   -10.54804   -10.54760   -10.54734   -10.54729   -10.54689
   -10.54643   -10.54638   -10.54603   -10.54400   -10.54334   -10.54267
   -10.54170   -10.54157   -10.54128   -10.54120   -10.54116   -10.54087
   -10.53881   -10.53874   -10.53791   -10.53781   -10.53563   -10.53431
   -10.53208   -10.52718    -8.49416    -8.46538    -6.99380    -6.41641
    -6.41545    -6.41439    -6.38716    -6.38688    -6.38671    -5.54288
    -5.54158    -5.11218    -5.11144    -5.10966    -3.85272    -3.85230
    -3.85215    -3.85131    -3.85122    -3.85082    -1.46244    -1.37274
    -1.36976    -1.25694    -1.23239    -1.21778    -1.18941    -1.14469
    -1.10591    -1.10316    -1.09035    -1.08998    -1.06884    -0.99224
    -0.98078    -0.97299    -0.96579    -0.94779    -0.94597    -0.94417
    -0.94215    -0.93755    -0.93456    -0.92878    -0.92076    -0.91100
    -0.90525    -0.89003    -0.88441    -0.88093    -0.85297    -0.85274
    -0.84785    -0.84281    -0.84191    -0.83776    -0.83720    -0.83606
    -0.83484    -0.83270    -0.83159    -0.83002    -0.82861    -0.82787
    -0.82715    -0.82529    -0.82384    -0.82233    -0.82070    -0.81400
    -0.80076    -0.76410    -0.75942    -0.74242    -0.73210    -0.71446
    -0.70986    -0.70449    -0.70273    -0.69742    -0.69115    -0.68857
    -0.68674    -0.68075    -0.68030    -0.67880    -0.67596    -0.67448
    -0.67433    -0.67269    -0.67188    -0.67082    -0.66815    -0.66683
    -0.66500    -0.66190    -0.66114    -0.66021    -0.65723    -0.65159
    -0.65013    -0.64317    -0.63441    -0.62581    -0.62035    -0.61509
    -0.60951    -0.60410    -0.60003    -0.58857    -0.58285    -0.58152
    -0.58081    -0.58041    -0.57791    -0.57777    -0.57594    -0.57386
    -0.57138    -0.56732    -0.56246    -0.55999    -0.55479    -0.55044
    -0.54712    -0.54680    -0.54249    -0.53930    -0.53781    -0.53441
    -0.52964    -0.52724    -0.52535    -0.52302    -0.52162    -0.51941
    -0.51800    -0.51665    -0.51494    -0.51404    -0.51337    -0.51299
    -0.51179    -0.50691    -0.50634    -0.50477    -0.50449    -0.50273
    -0.50197    -0.50104    -0.50015    -0.49942    -0.49631    -0.49543
    -0.49401    -0.49365    -0.49261    -0.49148    -0.48979    -0.48964
    -0.48411    -0.48358    -0.48284    -0.48103    -0.48039    -0.47730
    -0.47506    -0.47348    -0.46844    -0.46611    -0.46500    -0.45954
    -0.45654    -0.45407    -0.45325    -0.45254    -0.44993    -0.44756
    -0.44699    -0.44196    -0.44043    -0.43785    -0.43519    -0.43247
    -0.42915    -0.42736    -0.42579    -0.42450    -0.42166    -0.42076
    -0.41956    -0.41734    -0.41665    -0.41354    -0.41115    -0.40942
    -0.40518    -0.40514    -0.39964    -0.39816    -0.39398    -0.39372
    -0.39296    -0.39170    -0.39065    -0.38904    -0.38752    -0.38581
    -0.38411    -0.38245    -0.38062    -0.37687    -0.37564    -0.37143
    -0.36788    -0.35889    -0.35683    -0.35337    -0.35326    -0.34989
    -0.34674    -0.34614    -0.34361    -0.34192    -0.34037    -0.33753
    -0.32681    -0.32439    -0.31658    -0.31575    -0.31467    -0.30571
    -0.30407    -0.30292    -0.30227    -0.30091    -0.29935    -0.29810
    -0.29792    -0.29334    -0.29047    -0.29005    -0.28878    -0.28801
    -0.28203    -0.27612    -0.27223    -0.25379    -0.07059    -0.02571
    -0.02001    -0.00628     0.00059     0.00668     0.01441     0.01682
     0.01764     0.01859
 
  Peak memory usage:   1029 Mb
  
  end of program scf
   
 Time(scf)  user:     2811.2  user+sys:     2811.2  wallclock:    10336.1
  
  start of program sole
  
    SCRF                   solvation energy
  iteration          Hartrees            kcal/mol
     0               0.0000000            0.0000
     1              -0.0181683          -11.4008
     2              -0.0193610          -12.1492
     3              -0.0196024          -12.3007
  
  solvation energy not yet converged... 
  
  Peak memory usage:    813 Mb
  
  end of program sole
   
 Time(sole)  user:        0.2  user+sys:        0.2  wallclock:        0.6
  
  start of program ch
  
  gridpoints used for charge fit        16520
    out of a possible maximum of        16520
  
   Electrostatic potential fitting constrained to reproduce
     total charge:                yes
     dipole moment:               no 
     traceless quadrupole moment: no 
     traceless octapole moment:   no 
  
  Atomic charges from electrostatic potential: 
   
 Atom       C1           C2           C3           C4           H5      
 Charge   -0.08666     -0.52159      0.30192     -0.08268      0.22470
   
 Atom       C6           C7           C8           C9           H10     
 Charge   -0.35020      0.06027      0.25384     -0.02395      0.18569
   
 Atom       C11          C12          C13          C14          C15     
 Charge    0.05061      0.27054     -0.24664     -0.13315     -0.14751
   
 Atom       C16          H17          H18          H19          H20     
 Charge   -0.14541      0.15548      0.14315      0.14957      0.09128
   
 Atom       C21          C22          C23          C24          C25     
 Charge    0.07616      0.19522     -0.21030     -0.13880     -0.16036
   
 Atom       C26          H27          H28          H29          H30     
 Charge   -0.17933      0.14103      0.14766      0.14756      0.14366
   
 Atom       Si31         Si32         C33          C34          C35     
 Charge   -0.28393     -0.16161     -0.07504     -0.17938     -0.03911
   
 Atom       C36          C37          C38          H39          H40     
 Charge   -0.03414     -0.11695     -0.14231      0.08447      0.10728
   
 Atom       H41          H42          H43          C44          C45     
 Charge    0.07486      0.13319      0.13443     -0.15042     -0.17335
   
 Atom       C46          C47          C48          C49          H50     
 Charge   -0.12040      0.19813     -0.17574     -0.12872      0.14104
   
 Atom       H51          H52          H53          H54          C55     
 Charge    0.13870      0.12153      0.12767      0.13925     -0.14996
   
 Atom       C56          C57          C58          C59          C60     
 Charge   -0.15113     -0.18293      0.23510     -0.23253     -0.12683
   
 Atom       H61          H62          H63          H64          H65     
 Charge    0.14154      0.14455      0.13309      0.13014      0.14044
   
 Atom       C66          C67          C68          C69          C70     
 Charge   -0.12885     -0.17406     -0.10492      0.08180     -0.13345
   
 Atom       C71          H72          H73          H74          H75     
 Charge   -0.14771      0.13889      0.14794      0.09496      0.12262
   
 Atom       H76          C77          C78          C79          C80     
 Charge    0.13724     -0.15048     -0.13045     -0.19963      0.24081
   
 Atom       C81          C82          H83          H84          H85     
 Charge   -0.29259     -0.08122      0.12741      0.11601      0.12818
   
 Atom       H86          H87          C88          C89          C90     
 Charge    0.14137      0.12601     -0.09764     -0.20220     -0.08397
   
 Atom       C91          C92          C93          H94          H95     
 Charge    0.05706     -0.04342     -0.20411      0.13362      0.14483
   
 Atom       H96          H97          H98          O99          O100    
 Charge    0.11134      0.09375      0.14614     -0.12494     -0.39368
   
 Atom       P101         O102         N103         H104         C105    
 Charge    1.09882     -0.64225     -0.60945      0.47229      0.45164
   
 Atom       C106         C107         C108         C109         C110    
 Charge   -0.08249     -0.20550      0.00985      0.02905     -0.03672
   
 Atom       C111         H112         H113         H114         H115    
 Charge   -0.22465      0.14516      0.14153      0.04432      0.09795
   
 Atom       H116         H117         N118         S119         O120    
 Charge    0.17041     -0.04694     -0.63806      0.63735     -0.43706
   
 Atom       O121         C122         F123         F124         F125    
 Charge   -0.48354      0.37250     -0.12547     -0.10115     -0.08548
   
 Atom       C126         C127         C128         C129         N130    
 Charge    0.05793     -0.25456     -0.21166     -0.14002     -0.04683
   
 Atom       H131         H132         H133         H134         H135    
 Charge    0.07251      0.21088      0.18724      0.19033      0.30870
   
 Atom       S136         O137         O138         C139         C140    
 Charge    0.67204     -0.45665     -0.41854     -0.46917      0.38955
   
 Atom       N141         C142         C143         C144         H145    
 Charge   -0.61195      0.59868     -0.47676      0.22942      0.21251
   
 Atom       H146         H147         H148    
 Charge    0.07663      0.20036      0.11793
  
  sum of atomic charges:    -0.000000
   
 RMS Error   9.55E-04 hartrees
 
  Peak memory usage:    816 Mb
  
  end of program ch
   
 Time(ch)  user:       19.3  user+sys:       19.3  wallclock:       57.2
  
  start of program post
  
  Writing input files for PBF
  Peak memory usage:    759 Mb
  
  end of program post
   
 Time(post)  user:        0.8  user+sys:        0.8  wallclock:        3.7

  start of program pbf

Pbf Version 4.10

Molecular surface area:      845.90257   [A2]
Reaction field energy:       -20.14483   [kT]
  Peak memory usage: 721 Mb

  end of program pbf

 Time(pbf)  user:       13.3  user+sys:       13.4  wallclock:       42.7
  
  start of program solv
  
   number of surface charges from PBF   13310
   sum of surface charges     -0.00034
   
  nuclear repulsion energy.......   20756.457061545 hartrees
  Peak memory usage:    894 Mb
  
  end of program solv
   
 Time(solv)  user:       38.2  user+sys:       38.2  wallclock:      110.6
  
  start of program scf
  
 Energy computed with NOPS off.
  
       i  u  d  i  g                   
       t  p  i  c  r                                 RMS    maximum
       e  d  i  u  i                       energy  density   DIIS  
       r  t  s  t  d       total energy    change  change    error 
  
etot    1  N  N  1  U   -5575.59627688998           9.7E-06  2.6E-04
etot    2  N  Y  1  U   -5575.59620823119 -6.9E-05  6.3E-06  4.4E-04
etot    3  N  Y  1  U   -5575.59630621252  9.8E-05  2.2E-07  1.1E-05
etot    4  N  N  1  U   -5575.59630648436  2.7E-07  0.0E+00  0.0E+00
  
  
 Energy components, in hartrees:
   (A)  Total zero-electron terms....   20760.21872803927
   (B)    Nuclear-nuclear............   20756.45706154535
   (C)    Nuclear-solvent............       3.76166649392
   (E)  Total one-electron terms.....  -49046.62823516301
   (F)    Electron-nuclear...........  -54578.86766714528
   (G)    Electron-solvent...........      -3.80343539831
   (H)    Kinetic....................    5536.04286738059
   (I)  Total two-electron terms.....   22710.81320063938
   (J)    Coulomb....................   23362.07579119724
   (K)    Exchange+Correlation.......    -651.26259055787
   (L)  Electronic energy............  -26335.81503452363  (E+I)
   (N)  Total quantum mech. energy...   -5575.59630648436  (A+L)
   (O)  Gas phase energy.............   -5575.55589960071
   (P)  Solution phase energy........   -5575.57542203217  (Q+R+S)
   (Q)    Total solute energy........   -5575.55453757997  (N-C-G)
   (R)    Total solvent energy.......      -0.02088445220  (C/2+G/2)
   (S)    Solute cavity energy.......       0.00000000000
   (U)  Reorganization energy........       0.00136202074  (Q-O)
   (V)  Solvation energy.............      -0.01952243146  (P-O)
  
 SCFE:  Solution phase energy: DFT(m06-2x)      -5575.57542203217 hartrees
        SCF iterations:   4
  
 
 HOMO energy:    -0.25339
 LUMO energy:    -0.06959
 
  Orbital energies (hartrees): 
   -90.18171   -90.15574   -78.21372   -67.01064   -67.01004   -25.29766
   -25.29475   -25.29369   -19.69420   -19.69118   -19.66525   -19.66037
   -19.63380   -19.62602   -19.60807   -14.81924   -14.81144   -14.79695
   -14.74399   -10.81037   -10.66569   -10.63851   -10.62790   -10.61890
   -10.61147   -10.60440   -10.59230   -10.59078   -10.59048   -10.58483
   -10.58219   -10.57250   -10.57141   -10.57139   -10.56652   -10.56576
   -10.56438   -10.56430   -10.56228   -10.56181   -10.56140   -10.56102
   -10.55800   -10.55764   -10.55649   -10.55529   -10.55410   -10.55361
   -10.55355   -10.55339   -10.55292   -10.55288   -10.55155   -10.55139
   -10.55133   -10.55107   -10.55041   -10.55024   -10.55017   -10.54961
   -10.54918   -10.54909   -10.54882   -10.54881   -10.54865   -10.54858
   -10.54856   -10.54796   -10.54779   -10.54750   -10.54707   -10.54680
   -10.54641   -10.54631   -10.54514   -10.54361   -10.54228   -10.54209
   -10.54156   -10.54125   -10.54096   -10.54064   -10.54057   -10.53989
   -10.53938   -10.53819   -10.53687   -10.53647   -10.53486   -10.53358
   -10.53100   -10.52604    -8.49223    -8.46457    -6.99286    -6.41447
    -6.41352    -6.41245    -6.38635    -6.38607    -6.38590    -5.54194
    -5.54071    -5.11125    -5.11050    -5.10873    -3.85179    -3.85136
    -3.85121    -3.85045    -3.85035    -3.84995    -1.46198    -1.37225
    -1.36934    -1.25590    -1.23148    -1.21711    -1.18843    -1.14401
    -1.10537    -1.10320    -1.09007    -1.08879    -1.06647    -0.99138
    -0.98026    -0.97253    -0.96548    -0.94761    -0.94575    -0.94404
    -0.94201    -0.93683    -0.93432    -0.92867    -0.92051    -0.91071
    -0.90437    -0.88958    -0.88454    -0.88024    -0.85273    -0.85248
    -0.84749    -0.84250    -0.84156    -0.83755    -0.83700    -0.83594
    -0.83471    -0.83268    -0.83128    -0.82963    -0.82834    -0.82731
    -0.82687    -0.82505    -0.82316    -0.82201    -0.82044    -0.81309
    -0.80038    -0.76347    -0.75856    -0.74195    -0.73155    -0.71367
    -0.70933    -0.70412    -0.70225    -0.69700    -0.69071    -0.68810
    -0.68634    -0.68058    -0.68011    -0.67877    -0.67576    -0.67421
    -0.67394    -0.67254    -0.67148    -0.67026    -0.66756    -0.66664
    -0.66484    -0.66169    -0.66055    -0.65996    -0.65700    -0.65108
    -0.64942    -0.64281    -0.63406    -0.62532    -0.61955    -0.61429
    -0.60912    -0.60377    -0.59960    -0.58792    -0.58271    -0.58122
    -0.58044    -0.57981    -0.57758    -0.57746    -0.57553    -0.57362
    -0.57100    -0.56685    -0.56207    -0.55967    -0.55418    -0.54997
    -0.54657    -0.54623    -0.54205    -0.53894    -0.53738    -0.53393
    -0.52916    -0.52698    -0.52499    -0.52265    -0.52126    -0.51928
    -0.51784    -0.51624    -0.51463    -0.51365    -0.51298    -0.51256
    -0.51137    -0.50657    -0.50593    -0.50455    -0.50418    -0.50227
    -0.50177    -0.50070    -0.49983    -0.49918    -0.49597    -0.49514
    -0.49379    -0.49319    -0.49239    -0.49119    -0.48944    -0.48923
    -0.48395    -0.48339    -0.48269    -0.48092    -0.48015    -0.47685
    -0.47460    -0.47322    -0.46812    -0.46612    -0.46462    -0.45968
    -0.45622    -0.45382    -0.45305    -0.45228    -0.44963    -0.44731
    -0.44649    -0.44160    -0.43999    -0.43736    -0.43476    -0.43195
    -0.42870    -0.42715    -0.42542    -0.42426    -0.42149    -0.42033
    -0.41927    -0.41704    -0.41618    -0.41296    -0.41074    -0.40894
    -0.40479    -0.40453    -0.39939    -0.39743    -0.39375    -0.39351
    -0.39282    -0.39149    -0.39052    -0.38849    -0.38714    -0.38530
    -0.38373    -0.38214    -0.38019    -0.37639    -0.37517    -0.37104
    -0.36755    -0.35830    -0.35627    -0.35280    -0.35235    -0.34923
    -0.34621    -0.34558    -0.34305    -0.34131    -0.33991    -0.33708
    -0.32637    -0.32396    -0.31632    -0.31535    -0.31419    -0.30545
    -0.30388    -0.30272    -0.30203    -0.30073    -0.29905    -0.29789
    -0.29775    -0.29267    -0.29008    -0.28969    -0.28816    -0.28766
    -0.28163    -0.27566    -0.27191    -0.25339    -0.06959    -0.02500
    -0.01967    -0.00589     0.00099     0.00707     0.01477     0.01714
     0.01793     0.01903
 
  Peak memory usage:   1029 Mb
  
  end of program scf
   
 Time(scf)  user:     8114.7  user+sys:     8114.7  wallclock:    18837.0
  
  start of program sole
  
    SCRF                   solvation energy
  iteration          Hartrees            kcal/mol
     0               0.0000000            0.0000
     1              -0.0181683          -11.4008
     2              -0.0193610          -12.1492
     3              -0.0196024          -12.3007
     4              -0.0195224          -12.2505
  
  stopping: solvation energy converged
  
  iterations:   4    sfinal:    -12.2505 kcal/mol
  
  Peak memory usage:    813 Mb
  
  end of program sole
   
 Time(sole)  user:        0.2  user+sys:        0.2  wallclock:        0.4
  
  start of program post
  
  Writing input files for PBF
  Peak memory usage:    759 Mb
  
  end of program post
   
 Time(post)  user:        0.9  user+sys:        0.9  wallclock:        2.4

 Total cpu seconds     user:   61699.889   user+sys:   61699.889
  
 Total elapsed time:    240402 seconds

Job Type-II-Z-sulfonyl-bind-4-chkp-2-scan-unrestrained-SPE completed on tethys at Fri Mar 17 11:24:03 2017
