Job Toru-NTf-Sulfonyl-1-chkp-unrestrained-uff-acc-sol started on tethys at Fri Feb 10 14:32:31 2017
jobid: tethys-0-589dceff

  +--------------------------------------------------------------------+
  |  Jaguar version 8.4, release  16                                   |
  |                                                                    |
  |  Copyright Schrodinger, Inc.                                       |
  |  All Rights Reserved.                                              |
  |                                                                    |
  |  The following have contributed to Jaguar (listed alphabetically): |
  |  Mike Beachy, Art Bochevarov, Dale Braden, Yixiang Cao,            |
  |  Chris Cortis, Rich Friesner, Bill Goddard, Hod Greeley,           |
  |  Tom Hughes, Jean-Marc Langlois, Daniel Mainz, Rob Murphy,         |
  |  Dean Philipp, Tom Pollard, Murco Ringnalda.                       |
  |                                                                    |
  |  Use of this program should be acknowledged in publications as:    |
  |                                                                    |
  |  Jaguar, version 8.4, Schrodinger, Inc., New York, NY, 2013.       |
  |                                                                    |
  |  A. D. Bochevarov, E. Harder, T. F. Hughes, J. R. Greenwood,       |
  |  D. A. Braden, D. M. Philipp, D. Rinaldo, M. D. Halls,             |
  |  J. Zhang, R. A. Friesner, "Jaguar: A High-Performance Quantum     |
  |  Chemistry Software Program with Strengths in Life and Materials   |
  |  Sciences", Int. J. Quantum Chem., 2013, 113(18), 2110-2142.       |
  +--------------------------------------------------------------------+
  
  start of program pre
  
  Job name: Toru-NTf-Sulfonyl-1-chkp-unrestrained-uff-acc-sol
  Executables used: /usr/local/shared/schrodinger/current/jaguar-v84016/bin/Linux-x86_64
  Temporary files : /home/ab2144/.schrodinger/tmp/Toru-NTf-Sulfonyl-1-chkp-unrestrained-uff-acc-sol
  Maestro file (input):  Toru-NTf-Sulfonyl-1-chkp-unrestrained-uff-acc-sol.mae
  Maestro file (output): Toru-NTf-Sulfonyl-1-chkp-unrestrained-uff-acc-sol.01.mae
  
  
  basis set:             6-31g**         
  net molecular charge:    0
  multiplicity:            1
  
  keygrid settings 
    wispc.....   7.500E-01
    ldens.....   0
    denspc....   7.500E-01
  
   grid     daf set  nls  grid set  Q type
  ------    -------  ---  --------  ------
  coarse       1      1       1        1
  medium       2      2       2        1
  fine         3      2       3        0
  ultrafine    4      2       4        1
  charge       0      1      -1        1
  gradient     5      2       4        1
  density      0      1       0        0
  DFT-fine     0      1     -13        0
  DFT-med.     0      1     -13        0
  DFT-grad     0      1     -13        0
  DFT-der2     0      1       0        0
  DFT-cphf     0      1       0        0
  LMP2-enrg    4      2       4        1
  LMP2-grad    5      2       2        1
  DFT-cphf2    0      1       0        0
  PBF-dens     0      1       0        0
  plotting     0      1       0        0
  
  idftgrdm  100
  ndftgrdm   50    0    0
  idftgrdf  111
  ndftgrdf   85    0    0
  idftgrdg  111
  ndftgrdg   80    3    0
  idftgrdu  433
  ndftgrdu  105    0    0
  idftgrdd  433
  ndftgrdd  105    0    0
  idftgrdc  433
  ndftgrdc   26    0    0
  idftgrdp  433
  ndftgrdp   18    0    0
  
  number of basis functions....         1680
  
 Input geometry:
                                   angstroms
  atom               x                 y                 z
  C1           -5.3950000000      3.1228000000     -0.4460000000 
  C2           -4.9185000000      1.7111000000     -0.4209000000 
  C3           -6.6864000000      3.4062000000     -0.2408000000 
  C4           -5.8031000000      0.7296000000     -0.1367000000 
  C5           -3.4836000000      1.3627000000     -0.6587000000 
  C6           -7.2319000000      1.0542000000      0.0837000000 
  C7           -5.3448000000     -0.6647000000      0.0010000000 
  C8           -7.6499000000      2.3228000000      0.0274000000 
  C9           -3.0597000000      0.0926000000     -0.4448000000 
  C10          -2.5037000000      2.4117000000     -1.0496000000 
  C11          -4.0474000000     -0.9774000000     -0.1308000000 
  O12          -1.7501000000     -0.2500000000     -0.6786000000 
  Si13         -3.5040000000     -2.7355000000      0.2003000000 
  C14          -2.6202000000      3.1454000000     -2.1801000000 
  C15          -1.3640000000      2.6637000000     -0.1284000000 
  C16          -1.6935000000      4.2838000000     -2.4122000000 
  C17          -3.6427000000      2.8718000000     -3.2205000000 
  C18          -0.7384000000      4.5723000000     -1.5176000000 
  C19          -1.8659000000      5.0991000000     -3.6306000000 
  C20          -0.5549000000      3.7267000000     -0.3174000000 
  Si21          0.8565000000      4.1407000000      0.8366000000 
  O22          -1.1403000000      1.7806000000      0.8962000000 
  C23          -3.7332000000      3.6501000000     -4.3056000000 
  C24          -2.8250000000      4.7989000000     -4.5132000000 
  P25          -0.6368000000      0.3132000000      0.3895000000 
  O26          -0.4634000000     -0.5622000000      1.5870000000 
  N27           0.6834000000      0.6345000000     -0.5230000000 
  C28          -4.9634000000     -3.8603000000     -0.0813000000 
  C29          -2.1697000000     -3.2384000000     -1.0032000000 
  C30          -2.9422000000     -2.8749000000      1.9746000000 
  C31           2.4767000000      3.6328000000      0.0695000000 
  C32           0.8167000000      5.9813000000      1.1101000000 
  C33           0.6607000000      3.2609000000      2.4690000000 
  C34          -5.4612000000     -4.0212000000     -1.3194000000 
  C35          -5.6194000000     -4.5491000000      1.0586000000 
  C36          -2.2488000000     -2.8528000000     -2.2889000000 
  C37          -1.0518000000     -4.1193000000     -0.5814000000 
  C38          -2.9170000000     -1.7961000000      2.7771000000 
  C39          -2.5741000000     -4.1998000000      2.5330000000 
  C40           2.5441000000      3.2010000000     -1.2013000000 
  C41           3.7132000000      3.6804000000      0.8869000000 
  C42           1.9303000000      6.7289000000      1.0220000000 
  C43          -0.4830000000      6.6436000000      1.3809000000 
  C44          -0.1999000000      3.7100000000      3.3981000000 
  C45           1.3824000000      1.9870000000      2.7067000000 
  C46          -6.6253000000     -4.9020000000     -1.5477000000 
  C47          -7.2001000000     -5.5339000000     -0.5184000000 
  C48          -6.6760000000     -5.3440000000      0.8486000000 
  C49          -1.2409000000     -3.3063000000     -3.2697000000 
  C50          -0.2526000000     -4.1219000000     -2.8872000000 
  C51          -0.1595000000     -4.5550000000     -1.4795000000 
  C52          -2.4863000000     -1.9226000000      4.1848000000 
  C53          -2.1403000000     -3.1179000000      4.6757000000 
  C54          -2.1897000000     -4.3126000000      3.8101000000 
  C55           3.8377000000      2.7748000000     -1.7752000000 
  C56           4.9471000000      2.8083000000     -1.0284000000 
  C57           4.8820000000      3.2862000000      0.3669000000 
  C58           1.8631000000      8.1913000000      1.2259000000 
  C59           0.6898000000      8.7801000000      1.4847000000 
  C60          -0.5413000000      7.9687000000      1.5609000000 
  C61          -0.4043000000      2.9544000000      4.6521000000 
  C62           0.2504000000      1.8060000000      4.8587000000 
  C63           1.1819000000      1.2952000000      3.8350000000 
  C64           4.7637000000     -1.2311000000      4.6494000000 
  C65           4.4906000000     -2.1642000000      3.6512000000 
  C66           4.2129000000     -1.7482000000      2.3377000000 
  C67           4.2060000000     -0.3734000000      2.0417000000 
  C68           4.4986000000      0.5504000000      3.0410000000 
  C69           4.7713000000      0.1291000000      4.3447000000 
  C70           4.0386000000     -2.7872000000      1.3007000000 
  N71           4.1953000000     -2.4465000000     -0.0195000000 
  S72           4.5211000000     -3.6910000000     -1.1560000000 
  O73           5.5701000000     -4.5166000000     -0.5574000000 
  O74           3.2725000000     -4.3198000000     -1.6012000000 
  C75           5.1341000000     -2.6682000000     -2.5203000000 
  C76           4.3367000000     -2.5396000000     -3.6529000000 
  C77           4.8292000000     -1.7216000000     -4.6709000000 
  C78           6.0642000000     -1.1017000000     -4.4977000000 
  C79           6.7691000000     -1.3161000000     -3.3090000000 
  N80           6.3119000000     -2.0917000000     -2.3215000000 
  N81           1.2877000000     -2.5433000000      2.0696000000 
  C82           1.0760000000     -2.8021000000      3.3557000000 
  C83           1.6823000000     -4.0352000000      3.6973000000 
  C84           2.2720000000     -4.5131000000      2.5421000000 
  C85           2.1093000000     -3.5284000000      1.5098000000 
  H86          -4.7053000000      3.9387000000     -0.6133000000 
  H87          -7.0262000000      4.4337000000     -0.2596000000 
  H88          -7.9432000000      0.2650000000      0.2938000000 
  H89          -6.0719000000     -1.4232000000      0.2616000000 
  H90          -8.6935000000      2.5590000000      0.1902000000 
  H91          -4.3189000000      2.0320000000     -3.1269000000 
  H92          -0.0729000000      5.4112000000     -1.6848000000 
  H93          -1.2159000000      5.9455000000     -3.8184000000 
  H94          -4.4836000000      3.4335000000     -5.0550000000 
  H95          -2.9389000000      5.4043000000     -5.4033000000 
  H96          -5.0253000000     -3.5102000000     -2.1664000000 
  H97          -5.2678000000     -4.4013000000      2.0697000000 
  H98          -3.0498000000     -2.2084000000     -2.6279000000 
  H99          -0.9387000000     -4.4189000000      0.4478000000 
  H100         -3.2000000000     -0.8181000000      2.4128000000 
  H101         -2.6360000000     -5.0874000000      1.9164000000 
  H102          1.6615000000      3.1469000000     -1.8223000000 
  H103          3.6734000000      4.0256000000      1.9125000000 
  H104          2.8898000000      6.2843000000      0.8030000000 
  H105         -1.3948000000      6.0610000000      1.4193000000 
  H106         -0.7680000000      4.6151000000      3.2427000000 
  H107          2.0378000000      1.5848000000      1.9477000000 
  H108         -7.0116000000     -5.0338000000     -2.5501000000 
  H109         -8.0535000000     -6.1787000000     -0.6838000000 
  H110         -7.1558000000     -5.8412000000      1.6817000000 
  H111         -1.3079000000     -2.9803000000     -4.2995000000 
  H112          0.4864000000     -4.4558000000     -3.6040000000 
  H113          0.6466000000     -5.2073000000     -1.1707000000 
  H114         -2.4484000000     -1.0443000000      4.8163000000 
  H115         -1.8218000000     -3.2115000000      5.7058000000 
  H116         -1.9236000000     -5.2807000000      4.2140000000 
  H117          3.8828000000      2.4236000000     -2.7979000000 
  H118          5.8930000000      2.4870000000     -1.4448000000 
  H119          5.7813000000      3.3144000000      0.9685000000 
  H120          2.7661000000      8.7847000000      1.1642000000 
  H121          0.6394000000      9.8510000000      1.6328000000 
  H122         -1.4914000000      8.4494000000      1.7549000000 
  H123         -1.0936000000      3.3278000000      5.3983000000 
  H124          0.0938000000      1.2463000000      5.7717000000 
  H125          1.6884000000      0.3520000000      3.9925000000 
  H126          4.9835000000     -1.5687000000      5.6575000000 
  H127          4.5142000000     -3.2236000000      3.8825000000 
  H128          3.9926000000     -0.0211000000      1.0373000000 
  H129          4.5096000000      1.6086000000      2.8048000000 
  H130          4.9927000000      0.8604000000      5.1162000000 
  H131          4.5376000000     -3.7241000000      1.5271000000 
  H132          3.3769000000     -3.0356000000     -3.7110000000 
  H133          4.2493000000     -1.5670000000     -5.5750000000 
  H134          6.4784000000     -0.4547000000     -5.2639000000 
  H135          7.7339000000     -0.8441000000     -3.1410000000 
  H136          0.7951000000     -1.7645000000      1.5930000000 
  H137          0.5049000000     -2.1145000000      3.9633000000 
  H138          1.6722000000     -4.4915000000      4.6766000000 
  H139          2.8249000000     -5.4357000000      2.4225000000 
  H140          1.9918000000     -3.7327000000      0.4531000000 
  S141          1.4903000000     -0.4703000000     -1.2779000000 
  O142          1.1256000000     -1.8677000000     -0.9663000000 
  C143          1.0350000000     -0.2237000000     -3.0763000000 
  O144          2.9564000000     -0.2009000000     -1.2627000000 
  F145          1.4980000000      0.9490000000     -3.5206000000 
  F146          1.5718000000     -1.2038000000     -3.8254000000 
  F147         -0.2901000000     -0.2506000000     -3.2280000000 
  H148          3.7199000000     -1.6196000000     -0.4222000000 
   
  principal moments of inertia:
        amu*angstrom^2:    22426.66782    23903.72454    31556.51983
                g*cm^2: 3.72403534E-36 3.96930635E-36 5.24008275E-36
   
  rotational constants:
               cm^(-1):      0.00075168      0.00070523      0.00053420
                   GHz:      0.02253473      0.02114227      0.01601504
   
  Molecular weight:    1308.28 amu
   
  Stoichiometry: Si2C73PN4H56S2O7F3
  Molecular Point Group: C1      
  Point Group used: C1
  
  nuclear repulsion energy.......   20840.631043815 hartrees
 
 Non-default options chosen:
   SCF calculation type: DFT(m06-2x)                 
   DFT=M06-2X
   Solvation energy will be computed using PBF
     -solute cavity energy will not be included
     -surface area terms will not be included
   Highest accuracy cutoffs used in SCF
   Solvent: other                                                           
   Internal dielectric constant:    1.000
   Continuum dielectric constant:   2.380
   Solvent probe molecule radius:   2.760
  
 Temporary integer options set:
     73=  2
  
  atom       vdw   vdw2    cov     mass  grid  daf  charge   basis
  C1        1.949  1.900  0.770   12.000    Y    Y      Y    6-31g**
  C2        1.949  1.900  0.770   12.000    Y    Y      Y    6-31g**
  C3        1.949  1.900  0.770   12.000    Y    Y      Y    6-31g**
  C4        1.949  1.900  0.770   12.000    Y    Y      Y    6-31g**
  C5        1.949  1.900  0.770   12.000    Y    Y      Y    6-31g**
  C6        1.949  1.900  0.770   12.000    Y    Y      Y    6-31g**
  C7        1.949  1.900  0.770   12.000    Y    Y      Y    6-31g**
  C8        1.949  1.900  0.770   12.000    Y    Y      Y    6-31g**
  C9        1.949  1.900  0.770   12.000    Y    Y      Y    6-31g**
  C10       1.949  1.900  0.770   12.000    Y    Y      Y    6-31g**
  C11       1.949  1.900  0.770   12.000    Y    Y      Y    6-31g**
  O12       1.702  1.600  0.730   15.995    Y    Y      Y    6-31g**
  Si13      2.217  2.147  1.110   27.977    Y    Y      Y    6-31g**
  C14       1.949  1.900  0.770   12.000    Y    Y      Y    6-31g**
  C15       1.949  1.900  0.770   12.000    Y    Y      Y    6-31g**
  C16       1.949  1.900  0.770   12.000    Y    Y      Y    6-31g**
  C17       1.949  1.900  0.770   12.000    Y    Y      Y    6-31g**
  C18       1.949  1.900  0.770   12.000    Y    Y      Y    6-31g**
  C19       1.949  1.900  0.770   12.000    Y    Y      Y    6-31g**
  C20       1.949  1.900  0.770   12.000    Y    Y      Y    6-31g**
  Si21      2.217  2.147  1.110   27.977    Y    Y      Y    6-31g**
  O22       1.702  1.600  0.730   15.995    Y    Y      Y    6-31g**
  C23       1.949  1.900  0.770   12.000    Y    Y      Y    6-31g**
  C24       1.949  1.900  0.770   12.000    Y    Y      Y    6-31g**
  P25       2.147  2.074  1.060   30.974    Y    Y      Y    6-31g**
  O26       1.702  1.600  0.730   15.995    Y    Y      Y    6-31g**
  N27       1.831  1.600  0.750   14.003    Y    Y      Y    6-31g**
  C28       1.949  1.900  0.770   12.000    Y    Y      Y    6-31g**
  C29       1.949  1.900  0.770   12.000    Y    Y      Y    6-31g**
  C30       1.949  1.900  0.770   12.000    Y    Y      Y    6-31g**
  C31       1.949  1.900  0.770   12.000    Y    Y      Y    6-31g**
  C32       1.949  1.900  0.770   12.000    Y    Y      Y    6-31g**
  C33       1.949  1.900  0.770   12.000    Y    Y      Y    6-31g**
  C34       1.949  1.900  0.770   12.000    Y    Y      Y    6-31g**
  C35       1.949  1.900  0.770   12.000    Y    Y      Y    6-31g**
  C36       1.949  1.900  0.770   12.000    Y    Y      Y    6-31g**
  C37       1.949  1.900  0.770   12.000    Y    Y      Y    6-31g**
  C38       1.949  1.900  0.770   12.000    Y    Y      Y    6-31g**
  C39       1.949  1.900  0.770   12.000    Y    Y      Y    6-31g**
  C40       1.949  1.900  0.770   12.000    Y    Y      Y    6-31g**
  C41       1.949  1.900  0.770   12.000    Y    Y      Y    6-31g**
  C42       1.949  1.900  0.770   12.000    Y    Y      Y    6-31g**
  C43       1.949  1.900  0.770   12.000    Y    Y      Y    6-31g**
  C44       1.949  1.900  0.770   12.000    Y    Y      Y    6-31g**
  C45       1.949  1.900  0.770   12.000    Y    Y      Y    6-31g**
  C46       1.949  1.900  0.770   12.000    Y    Y      Y    6-31g**
  C47       1.949  1.900  0.770   12.000    Y    Y      Y    6-31g**
  C48       1.949  1.900  0.770   12.000    Y    Y      Y    6-31g**
  C49       1.949  1.900  0.770   12.000    Y    Y      Y    6-31g**
  C50       1.949  1.900  0.770   12.000    Y    Y      Y    6-31g**
  C51       1.949  1.900  0.770   12.000    Y    Y      Y    6-31g**
  C52       1.949  1.900  0.770   12.000    Y    Y      Y    6-31g**
  C53       1.949  1.900  0.770   12.000    Y    Y      Y    6-31g**
  C54       1.949  1.900  0.770   12.000    Y    Y      Y    6-31g**
  C55       1.949  1.900  0.770   12.000    Y    Y      Y    6-31g**
  C56       1.949  1.900  0.770   12.000    Y    Y      Y    6-31g**
  C57       1.949  1.900  0.770   12.000    Y    Y      Y    6-31g**
  C58       1.949  1.900  0.770   12.000    Y    Y      Y    6-31g**
  C59       1.949  1.900  0.770   12.000    Y    Y      Y    6-31g**
  C60       1.949  1.900  0.770   12.000    Y    Y      Y    6-31g**
  C61       1.949  1.900  0.770   12.000    Y    Y      Y    6-31g**
  C62       1.949  1.900  0.770   12.000    Y    Y      Y    6-31g**
  C63       1.949  1.900  0.770   12.000    Y    Y      Y    6-31g**
  C64       1.949  1.900  0.770   12.000    Y    Y      Y    6-31g**
  C65       1.949  1.900  0.770   12.000    Y    Y      Y    6-31g**
  C66       1.949  1.900  0.770   12.000    Y    Y      Y    6-31g**
  C67       1.949  1.900  0.770   12.000    Y    Y      Y    6-31g**
  C68       1.949  1.900  0.770   12.000    Y    Y      Y    6-31g**
  C69       1.949  1.900  0.770   12.000    Y    Y      Y    6-31g**
  C70       1.949  1.900  0.770   12.000    Y    Y      Y    6-31g**
  N71       1.831  1.600  0.750   14.003    Y    Y      Y    6-31g**
  S72       2.070  1.900  1.020   31.972    Y    Y      Y    6-31g**
  O73       1.702  1.600  0.730   15.995    Y    Y      Y    6-31g**
  O74       1.702  1.600  0.730   15.995    Y    Y      Y    6-31g**
  C75       1.949  1.900  0.770   12.000    Y    Y      Y    6-31g**
  C76       1.949  1.900  0.770   12.000    Y    Y      Y    6-31g**
  C77       1.949  1.900  0.770   12.000    Y    Y      Y    6-31g**
  C78       1.949  1.900  0.770   12.000    Y    Y      Y    6-31g**
  C79       1.949  1.900  0.770   12.000    Y    Y      Y    6-31g**
  N80       1.831  1.600  0.750   14.003    Y    Y      Y    6-31g**
  N81       1.831  1.600  0.750   14.003    Y    Y      Y    6-31g**
  C82       1.949  1.900  0.770   12.000    Y    Y      Y    6-31g**
  C83       1.949  1.900  0.770   12.000    Y    Y      Y    6-31g**
  C84       1.949  1.900  0.770   12.000    Y    Y      Y    6-31g**
  C85       1.949  1.900  0.770   12.000    Y    Y      Y    6-31g**
  H86       1.597  1.150  0.320    1.008    Y    Y      Y    6-31g**
  H87       1.597  1.150  0.320    1.008    Y    Y      Y    6-31g**
  H88       1.597  1.150  0.320    1.008    Y    Y      Y    6-31g**
  H89       1.597  1.150  0.320    1.008    Y    Y      Y    6-31g**
  H90       1.597  1.150  0.320    1.008    Y    Y      Y    6-31g**
  H91       1.597  1.150  0.320    1.008    Y    Y      Y    6-31g**
  H92       1.597  1.150  0.320    1.008    Y    Y      Y    6-31g**
  H93       1.597  1.150  0.320    1.008    Y    Y      Y    6-31g**
  H94       1.597  1.150  0.320    1.008    Y    Y      Y    6-31g**
  H95       1.597  1.150  0.320    1.008    Y    Y      Y    6-31g**
  H96       1.597  1.150  0.320    1.008    Y    Y      Y    6-31g**
  H97       1.597  1.150  0.320    1.008    Y    Y      Y    6-31g**
  H98       1.597  1.150  0.320    1.008    Y    Y      Y    6-31g**
  H99       1.597  1.150  0.320    1.008    Y    Y      Y    6-31g**
  H100      1.597  1.150  0.320    1.008    Y    Y      Y    6-31g**
  H101      1.597  1.150  0.320    1.008    Y    Y      Y    6-31g**
  H102      1.597  1.150  0.320    1.008    Y    Y      Y    6-31g**
  H103      1.597  1.150  0.320    1.008    Y    Y      Y    6-31g**
  H104      1.597  1.150  0.320    1.008    Y    Y      Y    6-31g**
  H105      1.597  1.150  0.320    1.008    Y    Y      Y    6-31g**
  H106      1.597  1.150  0.320    1.008    Y    Y      Y    6-31g**
  H107      1.597  1.150  0.320    1.008    Y    Y      Y    6-31g**
  H108      1.597  1.150  0.320    1.008    Y    Y      Y    6-31g**
  H109      1.597  1.150  0.320    1.008    Y    Y      Y    6-31g**
  H110      1.597  1.150  0.320    1.008    Y    Y      Y    6-31g**
  H111      1.597  1.150  0.320    1.008    Y    Y      Y    6-31g**
  H112      1.597  1.150  0.320    1.008    Y    Y      Y    6-31g**
  H113      1.597  1.150  0.320    1.008    Y    Y      Y    6-31g**
  H114      1.597  1.150  0.320    1.008    Y    Y      Y    6-31g**
  H115      1.597  1.150  0.320    1.008    Y    Y      Y    6-31g**
  H116      1.597  1.150  0.320    1.008    Y    Y      Y    6-31g**
  H117      1.597  1.150  0.320    1.008    Y    Y      Y    6-31g**
  H118      1.597  1.150  0.320    1.008    Y    Y      Y    6-31g**
  H119      1.597  1.150  0.320    1.008    Y    Y      Y    6-31g**
  H120      1.597  1.150  0.320    1.008    Y    Y      Y    6-31g**
  H121      1.597  1.150  0.320    1.008    Y    Y      Y    6-31g**
  H122      1.597  1.150  0.320    1.008    Y    Y      Y    6-31g**
  H123      1.597  1.150  0.320    1.008    Y    Y      Y    6-31g**
  H124      1.597  1.150  0.320    1.008    Y    Y      Y    6-31g**
  H125      1.597  1.150  0.320    1.008    Y    Y      Y    6-31g**
  H126      1.597  1.150  0.320    1.008    Y    Y      Y    6-31g**
  H127      1.597  1.150  0.320    1.008    Y    Y      Y    6-31g**
  H128      1.597  1.150  0.320    1.008    Y    Y      Y    6-31g**
  H129      1.597  1.150  0.320    1.008    Y    Y      Y    6-31g**
  H130      1.597  1.150  0.320    1.008    Y    Y      Y    6-31g**
  H131      1.597  1.150  0.320    1.008    Y    Y      Y    6-31g**
  H132      1.597  1.150  0.320    1.008    Y    Y      Y    6-31g**
  H133      1.597  1.150  0.320    1.008    Y    Y      Y    6-31g**
  H134      1.597  1.150  0.320    1.008    Y    Y      Y    6-31g**
  H135      1.597  1.150  0.320    1.008    Y    Y      Y    6-31g**
  H136      1.597  1.150  0.320    1.008    Y    Y      Y    6-31g**
  H137      1.597  1.150  0.320    1.008    Y    Y      Y    6-31g**
  H138      1.597  1.150  0.320    1.008    Y    Y      Y    6-31g**
  H139      1.597  1.150  0.320    1.008    Y    Y      Y    6-31g**
  H140      1.597  1.150  0.320    1.008    Y    Y      Y    6-31g**
  S141      2.070  1.900  1.020   31.972    Y    Y      Y    6-31g**
  O142      1.702  1.600  0.730   15.995    Y    Y      Y    6-31g**
  C143      1.949  1.900  0.770   12.000    Y    Y      Y    6-31g**
  O144      1.702  1.600  0.730   15.995    Y    Y      Y    6-31g**
  F145      1.736  1.682  0.720   18.998    Y    Y      Y    6-31g**
  F146      1.736  1.682  0.720   18.998    Y    Y      Y    6-31g**
  F147      1.736  1.682  0.720   18.998    Y    Y      Y    6-31g**
  H148      1.597  1.150  0.320    1.008    Y    Y      Y    6-31g**
  
  Peak memory usage:    528 Mb
  
  end of program pre
   
 Time(pre)  user:        0.0  user+sys:        0.0  wallclock:        0.4
  
  start of program onee
  
  smallest eigenvalue of S:    2.231E-04
  number of canonical orbitals.....         1673
  Peak memory usage:    707 Mb
  
  end of program onee
   
 Time(onee)  user:       26.0  user+sys:       28.0  wallclock:       33.5
  
  start of program hfig
  
  initial wavefunction generated automatically from atomic wavefunctions
 
  Irreducible     Total no   No of occupied orbitals 
  representation  orbitals   Shell_1  Shell_2    ...
  No Symm         1673        340
  ------------------------
  Orbital occupation/shell    1.000
 
  Peak memory usage:    646 Mb
  
  end of program hfig
   
 Time(hfig)  user:       37.0  user+sys:       38.0  wallclock:       39.7
  
  start of program probe
  
  Peak memory usage:    640 Mb
  
  end of program probe
   
 Time(probe)  user:       30.0  user+sys:       30.0  wallclock:       31.7
  
  start of program grid
  
  
   grid     grid set  grid #  grid sym
  ------    --------  ------  --------
  coarse        0        0        1
  medium        2        1        1
  fine          0        0        1
  ultrafine     4        2        1
  charge       -1        3        1
  gradient      4        2        1
  density       0        0        1
  DFT-fine    -13        4        1
  DFT-med.    -13        4        1
  DFT-grad    -13        4        1
  DFT-der2      0        0        1
  DFT-cphf      0        0        1
  LMP2-enrg     4        2        1
  LMP2-grad     2        1        1
  DFT-cphf2     0        0        1
  PBF-dens      0        0        1
  plotting      0        0        1
  
   
  number of gridpoints: 
     atom        C1       C2       C3       C4       C5       C6       C7
  grid # 1       97      101       94      102      100       96       93
  grid # 2      338      360      337      366      357      335      336
  grid # 3       36       28       42       46       16       48       26
  grid # 4    48124    48124    48124    48124    48124    48124    48124
   
  number of gridpoints: 
     atom        C8       C9      C10      C11      O12     Si13      C14
  grid # 1       94       97      100      101      111      471      101
  grid # 2      336      356      354      359      437      471      357
  grid # 3       49       17       12       10       29        7       22
  grid # 4    48124    48124    48124    48124    47716    38542    48124
   
  number of gridpoints: 
     atom       C15      C16      C17      C18      C19      C20     Si21
  grid # 1       98      101       96       93       98      100      470
  grid # 2      358      366      336      331      339      360      470
  grid # 3       25       38       25       17       42        8        8
  grid # 4    48124    48124    48124    48124    48124    48124    38542
   
  number of gridpoints: 
     atom       O22      C23      C24      P25      O26      N27      C28
  grid # 1      112       95       94      452      116      107      101
  grid # 2      441      339      338      452      453      412      357
  grid # 3       61       39       46        7       47       22       18
  grid # 4    47716    48124    48124    38640    47716    47928    48124
   
  number of gridpoints: 
     atom       C29      C30      C31      C32      C33      C34      C35
  grid # 1      101       99      100       99      100       93       96
  grid # 2      360      361      356      360      358      336      338
  grid # 3       18       11        8       15       15       30       27
  grid # 4    48124    48124    48124    48124    48124    48124    48124
   
  number of gridpoints: 
     atom       C36      C37      C38      C39      C40      C41      C42
  grid # 1       92       97       92       94       93       94       93
  grid # 2      335      337      334      328      333      330      338
  grid # 3       17       27       18       11       22       11       36
  grid # 4    48124    48124    48124    48124    48124    48124    48124
   
  number of gridpoints: 
     atom       C43      C44      C45      C46      C47      C48      C49
  grid # 1       95       93       94       94       94       94       93
  grid # 2      335      335      332      336      336      336      331
  grid # 3       22       31       15       41       45       42       26
  grid # 4    48124    48124    48124    48124    48124    48124    48124
   
  number of gridpoints: 
     atom       C50      C51      C52      C53      C54      C55      C56
  grid # 1       93       94       93       93       92       93       93
  grid # 2      333      334      332      332      334      332      333
  grid # 3       28       30       25       25       21       29       31
  grid # 4    48124    48124    48124    48124    48124    48124    48124
   
  number of gridpoints: 
     atom       C57      C58      C59      C60      C61      C62      C63
  grid # 1       93       94       94       94       93       93       93
  grid # 2      333      336      336      336      337      335      334
  grid # 3       20       45       46       38       41       37       25
  grid # 4    48124    48124    48124    48124    48124    48124    48124
   
  number of gridpoints: 
     atom       C64      C65      C66      C67      C68      C69      C70
  grid # 1       96       96      101       96       96       96       91
  grid # 2      332      335      362      331      330      330      320
  grid # 3       37       35       32       32       30       31        6
  grid # 4    48124    48124    48124    48124    48124    48124    48124
   
  number of gridpoints: 
     atom       N71      S72      O73      O74      C75      C76      C77
  grid # 1       97      445      123      119       98       96       96
  grid # 2      350      445      505      476      357      328      332
  grid # 3       25       14      306      125       33       35       40
  grid # 4    47928    48492    47716    47716    48124    48124    48124
   
  number of gridpoints: 
     atom       C78      C79      N80      N81      C82      C83      C84
  grid # 1       96       96      113       96       94       93       93
  grid # 2      333      339      426      339      328      326      329
  grid # 3       42       41      129       12       12       14       16
  grid # 4    48124    48124    47928    47928    48124    48124    48124
   
  number of gridpoints: 
     atom       C85      H86      H87      H88      H89      H90      H91
  grid # 1       90      112      118      118      109      118      114
  grid # 2      324      434      451      446      428      453      435
  grid # 3        7      238      420      360      203      425      250
  grid # 4    48124    48426    48426    48426    48426    48426    48426
   
  number of gridpoints: 
     atom       H92      H93      H94      H95      H96      H97      H98
  grid # 1      113      118      118      118      111      111      111
  grid # 2      428      443      450      450      432      433      426
  grid # 3      208      362      411      417      225      233      177
  grid # 4    48426    48426    48426    48426    48426    48426    48426
   
  number of gridpoints: 
     atom       H99     H100     H101     H102     H103     H104     H105
  grid # 1      108      110      112      109      110      112      111
  grid # 2      418      426      426      420      430      431      428
  grid # 3      149      188      219      134      209      228      205
  grid # 4    48426    48426    48426    48426    48426    48426    48426
   
  number of gridpoints: 
     atom      H106     H107     H108     H109     H110     H111     H112
  grid # 1      111      104      118      118      118      117      116
  grid # 2      429      408      453      453      453      445      443
  grid # 3      225       54      420      424      423      347      321
  grid # 4    48426    48426    48426    48426    48426    48426    48426
   
  number of gridpoints: 
     atom      H113     H114     H115     H116     H117     H118     H119
  grid # 1      112      116      117      117      115      117      115
  grid # 2      434      445      449      449      439      449      446
  grid # 3      250      313      365      369      287      352      354
  grid # 4    48426    48426    48426    48426    48426    48426    48426
   
  number of gridpoints: 
     atom      H120     H121     H122     H123     H124     H125     H126
  grid # 1      118      118      118      118      117      108      118
  grid # 2      453      453      453      451      447      424      450
  grid # 3      419      424      421      410      350      152      406
  grid # 4    48426    48426    48426    48426    48426    48426    48426
   
  number of gridpoints: 
     atom      H127     H128     H129     H130     H131     H132     H133
  grid # 1      113      107      109      117      106      110      115
  grid # 2      433      419      421      450      414      425      449
  grid # 3      235      116      141      394      150      187      382
  grid # 4    48426    48426    48426    48426    48426    48426    48426
   
  number of gridpoints: 
     atom      H134     H135     H136     H137     H138     H139     H140
  grid # 1      117      117      101      110      116      115      103
  grid # 2      451      453      403      427      456      452      408
  grid # 3      408      427       76      158      380      359       62
  grid # 4    48426    48426    48426    48426    48426    48426    48426
   
  number of gridpoints: 
     atom      S141     O142     C143     O144     F145     F146     F147
  grid # 1      429      116       90      117      523      521      520
  grid # 2      429      460      318      458      523      521      520
  grid # 3        9       43        7       57      163      112      130
  grid # 4    48492    47716    48124    47716    47062    47062    47062
   
  number of gridpoints: 
     atom      H148    total
  grid # 1       99    18371
  grid # 2      394    57848
  grid # 3       53    19170
  grid # 4    48426  7104526
   
  Peak memory usage:    671 Mb
  
  end of program grid
   
 Time(grid)  user:     1051.0  user+sys:     1056.0  wallclock:     1579.4
  
  start of program rwr
  
  Peak memory usage:    661 Mb
  
  end of program rwr
   
 Time(rwr)  user:       64.0  user+sys:       69.0  wallclock:      134.8
  
  start of program scf
  
 number of electrons..........        680
 number of alpha electrons....        340
 number of beta electrons.....        340
 number of orbitals, total....       1673
 number of doubly-occ'd orbs..        340
 number of open shell orbs....          0
 number of occupied orbitals..        340
 number of virtual orbitals...       1333
 number of hamiltonians.......          1
 number of shells.............          1
 SCF type: DFT=M06-2X
  
       i  u  d  i  g                   
       t  p  i  c  r                                 RMS    maximum
       e  d  i  u  i                       energy  density   DIIS  
       r  t  s  t  d       total energy    change  change    error 
  
etot    1  N  N  1  U   -5562.68770349053           4.5E-03  1.1E-01
etot    2  N  Y  1  U   -5522.83994051211 -4.0E+01  1.8E-02  1.6E-01
etot    3  N  Y  1  U   -5256.34430498360 -2.7E+02  1.8E-02  3.8E-01
etot    4  N  Y  1  U   -5570.96554417547  3.1E+02  2.6E-03  7.3E-02
etot    5  N  Y  1  U   -5570.65972117527 -3.1E-01  2.0E-03  4.3E-02
etot    6  N  Y  1  U   -5569.28439715016 -1.4E+00  1.3E-03  6.7E-02
etot    7  N  Y  1  U   -5575.41719234761  6.1E+00  3.2E-04  2.8E-02
etot    8  N  Y  1  U   -5575.53432904955  1.2E-01  1.1E-04  1.7E-02
etot    9  N  Y  1  U   -5575.55719682787  2.3E-02  4.1E-05  1.6E-03
etot   10  N  Y  1  U   -5575.55968227782  2.5E-03  1.8E-05  1.1E-03
etot   11  N  Y  1  U   -5575.56030133284  6.2E-04  1.1E-05  7.9E-04
etot   12  N  Y  1  U   -5575.56052048309  2.2E-04  7.6E-06  2.1E-04
etot   13  N  Y  1  U   -5575.56061408219  9.4E-05  3.0E-06  1.6E-04
etot   14  N  N  1  U   -5575.56062792775  1.4E-05  0.0E+00  0.0E+00
  
  
 Energy components, in hartrees:
   (A)  Nuclear repulsion............   20840.63104381509
   (E)  Total one-electron terms.....  -49209.48221595233
   (F)    Electron-nuclear...........  -54745.49396940105
   (H)    Kinetic....................    5536.01175344871
   (I)  Total two-electron terms.....   22793.29054420950
   (J)    Coulomb....................   23444.53871629862
   (K)    Exchange+Correlation.......    -651.24817208912
   (L)  Electronic energy............  -26416.19167174284  (E+I)
   (M)  -V/T.........................       2.00714392892  (-(A+F+I)/H)
   (N)  Total energy.................   -5575.56062792775  (A+L)
  
 SCFE: SCF energy: DFT(m06-2x)     -5575.56062792775 hartrees   iterations:  14
  
 
 HOMO energy:    -0.25257
 LUMO energy:    -0.06595
 
  Orbital energies (hartrees): 
   -90.17259   -90.15297   -78.20423   -67.00322   -67.00313   -25.29353
   -25.29302   -25.28831   -19.68416   -19.68126   -19.65257   -19.65188
   -19.63295   -19.62746   -19.59991   -14.82221   -14.81691   -14.79511
   -14.73793   -10.80715   -10.66331   -10.63603   -10.61965   -10.61847
   -10.61808   -10.61302   -10.60226   -10.59527   -10.59127   -10.58855
   -10.58531   -10.58277   -10.57451   -10.56971   -10.56809   -10.56790
   -10.56778   -10.56720   -10.56719   -10.56535   -10.56490   -10.56218
   -10.56031   -10.55916   -10.55649   -10.55631   -10.55203   -10.55200
   -10.55071   -10.55047   -10.55045   -10.54984   -10.54979   -10.54942
   -10.54866   -10.54802   -10.54772   -10.54703   -10.54665   -10.54659
   -10.54643   -10.54616   -10.54566   -10.54555   -10.54492   -10.54482
   -10.54429   -10.54381   -10.54360   -10.54328   -10.54224   -10.54193
   -10.54038   -10.53960   -10.53874   -10.53861   -10.53849   -10.53724
   -10.53599   -10.53566   -10.53506   -10.53231   -10.53220   -10.53101
   -10.52981   -10.52926   -10.52841   -10.52835   -10.52752   -10.52441
   -10.52129   -10.51807    -8.48337    -8.46189    -6.98393    -6.40559
    -6.40446    -6.40386    -6.38385    -6.38337    -6.38312    -5.53425
    -5.53419    -5.10234    -5.10119    -5.09994    -3.84403    -3.84399
    -3.84373    -3.84371    -3.84361    -3.84339    -1.45785    -1.36781
    -1.36552    -1.24555    -1.22635    -1.21722    -1.17944    -1.13094
    -1.11291    -1.10212    -1.08773    -1.08401    -1.06746    -0.99178
    -0.97863    -0.97451    -0.96469    -0.94153    -0.94077    -0.93782
    -0.93513    -0.93037    -0.92994    -0.92444    -0.91899    -0.90833
    -0.90503    -0.89965    -0.88752    -0.88042    -0.85555    -0.85102
    -0.84279    -0.84029    -0.83850    -0.83465    -0.83287    -0.83284
    -0.83041    -0.82902    -0.82574    -0.82547    -0.82434    -0.82272
    -0.82170    -0.81898    -0.81736    -0.81670    -0.81241    -0.80819
    -0.79828    -0.76107    -0.75750    -0.74380    -0.72796    -0.71726
    -0.70752    -0.70086    -0.69645    -0.69410    -0.69083    -0.68834
    -0.68723    -0.68422    -0.68162    -0.67829    -0.67683    -0.67527
    -0.67174    -0.67163    -0.66892    -0.66856    -0.66664    -0.66262
    -0.65851    -0.65760    -0.65601    -0.65204    -0.65061    -0.64992
    -0.64700    -0.64518    -0.63292    -0.62213    -0.61642    -0.60639
    -0.60443    -0.59855    -0.59665    -0.58494    -0.58304    -0.57895
    -0.57708    -0.57554    -0.57527    -0.57435    -0.56996    -0.56953
    -0.56539    -0.56256    -0.55863    -0.55714    -0.54860    -0.54821
    -0.54534    -0.54273    -0.53881    -0.53607    -0.53514    -0.53367
    -0.53164    -0.52622    -0.52532    -0.52346    -0.52211    -0.52041
    -0.51523    -0.51505    -0.51371    -0.51215    -0.51083    -0.50858
    -0.50683    -0.50534    -0.50282    -0.50076    -0.49977    -0.49938
    -0.49796    -0.49745    -0.49580    -0.49470    -0.49444    -0.49357
    -0.49277    -0.49186    -0.49017    -0.48799    -0.48693    -0.48392
    -0.48208    -0.48099    -0.47996    -0.47922    -0.47756    -0.47715
    -0.47517    -0.47336    -0.47124    -0.46610    -0.46525    -0.46463
    -0.46065    -0.45147    -0.44952    -0.44762    -0.44638    -0.44457
    -0.44060    -0.43921    -0.43836    -0.43207    -0.42952    -0.42725
    -0.42603    -0.42202    -0.42099    -0.41942    -0.41934    -0.41584
    -0.41545    -0.41477    -0.41241    -0.40794    -0.40342    -0.40117
    -0.39907    -0.39788    -0.39787    -0.39490    -0.39116    -0.38986
    -0.38972    -0.38778    -0.38636    -0.38509    -0.38428    -0.37973
    -0.37869    -0.37687    -0.37468    -0.37431    -0.37104    -0.36747
    -0.36478    -0.36083    -0.35299    -0.34854    -0.34733    -0.34363
    -0.34030    -0.33838    -0.33716    -0.33673    -0.33530    -0.33341
    -0.32981    -0.32675    -0.32099    -0.32066    -0.31535    -0.29916
    -0.29806    -0.29765    -0.29682    -0.29424    -0.29343    -0.29160
    -0.28782    -0.28739    -0.28583    -0.28397    -0.28251    -0.28094
    -0.27953    -0.27483    -0.27021    -0.25257    -0.06595    -0.02620
    -0.01779    -0.00594     0.00167     0.01444     0.01491     0.01991
     0.02189     0.02354
 
  Peak memory usage:    862 Mb
  
  end of program scf
   
 Time(scf)  user:    38090.0  user+sys:    38283.0  wallclock:    67567.9
  
  start of program ch
  
  gridpoints used for charge fit        16628
    out of a possible maximum of        19170
  
   Electrostatic potential fitting constrained to reproduce
     total charge:                yes
     dipole moment:               no 
     traceless quadrupole moment: no 
     traceless octapole moment:   no 
  
  Atomic charges from electrostatic potential: 
   
 Atom       C1           C2           C3           C4           C5      
 Charge   -0.11394     -0.02907     -0.18671      0.19362      0.17338
   
 Atom       C6           C7           C8           C9           C10     
 Charge   -0.23504     -0.33832     -0.08667     -0.08511     -0.29291
   
 Atom       C11          O12          Si13         C14          C15     
 Charge    0.12569     -0.14453     -0.25219      0.10792      0.21764
   
 Atom       C16          C17          C18          C19          C20     
 Charge    0.29447     -0.15059     -0.49414     -0.27281      0.12159
   
 Atom       Si21         O22          C23          C24          P25     
 Charge   -0.06641     -0.24721     -0.17206     -0.09503      0.80458
   
 Atom       O26          N27          C28          C29          C30     
 Charge   -0.48715     -0.56570      0.21981      0.13129      0.16018
   
 Atom       C31          C32          C33          C34          C35     
 Charge   -0.04200     -0.04087      0.09176     -0.21621     -0.20203
   
 Atom       C36          C37          C38          C39          C40     
 Charge   -0.15949     -0.16114     -0.09425     -0.10777     -0.03022
   
 Atom       C41          C42          C43          C44          C45     
 Charge    0.02372      0.00198     -0.07619     -0.16274     -0.15507
   
 Atom       C46          C47          C48          C49          C50     
 Charge   -0.10524     -0.16817     -0.10717     -0.14989     -0.14356
   
 Atom       C51          C52          C53          C54          C55     
 Charge   -0.09556     -0.19100     -0.10042     -0.17035     -0.20153
   
 Atom       C56          C57          C58          C59          C60     
 Charge   -0.05667     -0.23206     -0.21801     -0.08397     -0.17669
   
 Atom       C61          C62          C63          C64          C65     
 Charge   -0.13584     -0.15447     -0.07208     -0.10528     -0.19371
   
 Atom       C66          C67          C68          C69          C70     
 Charge    0.17250     -0.26210      0.01519     -0.15902      0.09290
   
 Atom       N71          S72          O73          O74          C75     
 Charge   -0.51628      0.62250     -0.40272     -0.41187      0.62331
   
 Atom       C76          C77          C78          C79          N80     
 Charge   -0.48775      0.21646     -0.48073      0.43177     -0.62101
   
 Atom       N81          C82          C83          C84          C85     
 Charge   -0.12579     -0.06302     -0.22194     -0.28046      0.40651
   
 Atom       H86          H87          H88          H89          H90     
 Charge    0.12570      0.14633      0.14390      0.18483      0.12798
   
 Atom       H91          H92          H93          H94          H95     
 Charge    0.12552      0.22436      0.15664      0.14561      0.12837
   
 Atom       H96          H97          H98          H99          H100    
 Charge    0.13540      0.10688      0.14218      0.08205      0.11735
   
 Atom       H101         H102         H103         H104         H105    
 Charge    0.12271      0.11330      0.08194      0.06387      0.11643
   
 Atom       H106         H107         H108         H109         H110    
 Charge    0.11910      0.14158      0.12739      0.13627      0.12971
   
 Atom       H111         H112         H113         H114         H115    
 Charge    0.12344      0.13725      0.12484      0.14171      0.11586
   
 Atom       H116         H117         H118         H119         H120    
 Charge    0.12444      0.13655      0.10557      0.13560      0.14692
   
 Atom       H121         H122         H123         H124         H125    
 Charge    0.12301      0.13278      0.13081      0.12404      0.07256
   
 Atom       H126         H127         H128         H129         H130    
 Charge    0.13441      0.11859      0.18812      0.07187      0.14103
   
 Atom       H131         H132         H133         H134         H135    
 Charge    0.13406      0.21037      0.10549      0.20052      0.05503
   
 Atom       H136         H137         H138         H139         H140    
 Charge    0.22663      0.19155      0.18047      0.18217     -0.02695
   
 Atom       S141         O142         C143         O144         F145    
 Charge    0.68148     -0.41553      0.35546     -0.46344     -0.12391
   
 Atom       F146         F147         H148    
 Charge   -0.12011     -0.09910      0.36018
  
  sum of atomic charges:     0.000000
   
 RMS Error   1.02E-03 hartrees
 
  Peak memory usage:    589 Mb
  
  end of program ch
   
 Time(ch)  user:       19.0  user+sys:       20.0  wallclock:       24.0
  
  start of program post
  
  Writing input files for PBF
  Peak memory usage:    536 Mb
  
  end of program post
   
 Time(post)  user:        0.0  user+sys:        0.0  wallclock:        0.4

  start of program pbf

Pbf Version 4.00

Molecular surface area:      832.30105   [A2]
Reaction field energy:       -17.66861   [kT]
  Peak memory usage: 562 Mb

  end of program pbf

 Time(pbf)  user:        7.9  user+sys:        8.0  wallclock:       15.5
  
  start of program solv
  
   number of surface charges from PBF   13674
   sum of surface charges     -0.00026
   
  nuclear repulsion energy.......   20840.631043815 hartrees
  Peak memory usage:    701 Mb
  
  end of program solv
   
 Time(solv)  user:       39.0  user+sys:       39.0  wallclock:       50.0
  
  start of program scf
  
  
       i  u  d  i  g                   
       t  p  i  c  r                                 RMS    maximum
       e  d  i  u  i                       energy  density   DIIS  
       r  t  s  t  d       total energy    change  change    error 
  
etot    1  N  N  1  U   -5575.59731901911           5.6E-05  1.4E-03
etot    2  N  Y  1  U   -5575.59816553629  8.5E-04  1.7E-05  1.1E-03
etot    3  N  Y  1  U   -5575.59845851096  2.9E-04  5.7E-06  5.2E-04
etot    4  N  Y  1  U   -5575.59851437907  5.6E-05  2.5E-06  1.2E-04
etot    5  N  N  1  U   -5575.59852196588  7.6E-06  0.0E+00  0.0E+00
  
  
 Energy components, in hartrees:
   (A)  Total zero-electron terms....   20843.11358987059
   (B)    Nuclear-nuclear............   20840.63104381509
   (C)    Nuclear-solvent............       2.48254605550
   (E)  Total one-electron terms.....  -49213.43069641247
   (F)    Electron-nuclear...........  -54746.98581167765
   (G)    Electron-solvent...........      -2.52162742979
   (H)    Kinetic....................    5536.07674269497
   (I)  Total two-electron terms.....   22794.71858457600
   (J)    Coulomb....................   23445.98934257829
   (K)    Exchange+Correlation.......    -651.27075800229
   (L)  Electronic energy............  -26418.71211183647  (E+I)
   (N)  Total quantum mech. energy...   -5575.59852196588  (A+L)
   (O)  Gas phase energy.............   -5575.56062792775
   (P)  Solution phase energy........   -5575.57898127874  (Q+R+S)
   (Q)    Total solute energy........   -5575.55944059159  (N-C-G)
   (R)    Total solvent energy.......      -0.01954068714  (C/2+G/2)
   (S)    Solute cavity energy.......       0.00000000000
   (U)  Reorganization energy........       0.00118733615  (Q-O)
   (V)  Solvation energy.............      -0.01835335099  (P-O)
  
 SCFE:  Solution phase energy: DFT(m06-2x)      -5575.57898127874 hartrees
        SCF iterations:   5
  
 
 HOMO energy:    -0.25486
 LUMO energy:    -0.06442
 
  Orbital energies (hartrees): 
   -90.17750   -90.15501   -78.20633   -67.00643   -67.00602   -25.29544
   -25.29515   -25.29099   -19.68670   -19.68361   -19.65782   -19.65609
   -19.63410   -19.62924   -19.60136   -14.82066   -14.81841   -14.79382
   -14.74005   -10.80940   -10.66211   -10.63600   -10.62245   -10.62114
   -10.61611   -10.60945   -10.60072   -10.59109   -10.58907   -10.58378
   -10.58367   -10.57893   -10.57161   -10.57143   -10.56988   -10.56825
   -10.56767   -10.56609   -10.56576   -10.56464   -10.56374   -10.56261
   -10.56189   -10.56055   -10.55952   -10.55818   -10.55349   -10.55336
   -10.55281   -10.55260   -10.55210   -10.55173   -10.55107   -10.55022
   -10.54991   -10.54972   -10.54937   -10.54927   -10.54902   -10.54886
   -10.54871   -10.54769   -10.54758   -10.54727   -10.54674   -10.54673
   -10.54649   -10.54586   -10.54570   -10.54564   -10.54462   -10.54326
   -10.54236   -10.54182   -10.54140   -10.54110   -10.54018   -10.53912
   -10.53862   -10.53846   -10.53775   -10.53558   -10.53497   -10.53444
   -10.53386   -10.53236   -10.53207   -10.53142   -10.53058   -10.52685
   -10.52450   -10.52214    -8.48820    -8.46388    -6.98604    -6.41037
    -6.40939    -6.40865    -6.38585    -6.38536    -6.38512    -5.53749
    -5.53704    -5.10446    -5.10331    -5.10204    -3.84733    -3.84701
    -3.84677    -3.84670    -3.84651    -3.84640    -1.46020    -1.37011
    -1.36791    -1.25090    -1.22857    -1.21916    -1.18197    -1.13680
    -1.11140    -1.10364    -1.08666    -1.08563    -1.06868    -0.99382
    -0.98126    -0.97274    -0.96727    -0.94376    -0.94349    -0.94054
    -0.93718    -0.93257    -0.92840    -0.92729    -0.92151    -0.91046
    -0.90379    -0.89701    -0.88995    -0.87847    -0.85345    -0.85334
    -0.84268    -0.84129    -0.84062    -0.83672    -0.83527    -0.83504
    -0.83300    -0.83088    -0.82813    -0.82760    -0.82665    -0.82503
    -0.82430    -0.82138    -0.82041    -0.81969    -0.81612    -0.80781
    -0.80038    -0.76241    -0.75715    -0.74075    -0.72999    -0.71666
    -0.70960    -0.70276    -0.69670    -0.69464    -0.69047    -0.68839
    -0.68651    -0.68635    -0.68408    -0.68046    -0.67877    -0.67727
    -0.67361    -0.67118    -0.67052    -0.66894    -0.66809    -0.66452
    -0.66124    -0.65969    -0.65892    -0.65409    -0.65294    -0.64950
    -0.64814    -0.64549    -0.63443    -0.62439    -0.61469    -0.60796
    -0.60648    -0.60069    -0.59860    -0.58681    -0.58247    -0.58069
    -0.57904    -0.57707    -0.57597    -0.57295    -0.57184    -0.57102
    -0.56703    -0.56428    -0.56093    -0.55911    -0.54998    -0.54773
    -0.54719    -0.54433    -0.53901    -0.53733    -0.53653    -0.53363
    -0.53225    -0.52787    -0.52587    -0.52476    -0.52254    -0.52181
    -0.51642    -0.51518    -0.51394    -0.51292    -0.51152    -0.50983
    -0.50842    -0.50750    -0.50503    -0.50309    -0.50192    -0.49968
    -0.49769    -0.49701    -0.49658    -0.49627    -0.49479    -0.49444
    -0.49271    -0.49249    -0.49028    -0.49016    -0.48845    -0.48667
    -0.48367    -0.48307    -0.48172    -0.48097    -0.47973    -0.47645
    -0.47461    -0.47311    -0.47034    -0.46859    -0.46747    -0.46304
    -0.46190    -0.45361    -0.45163    -0.44860    -0.44748    -0.44593
    -0.44264    -0.44178    -0.44031    -0.43363    -0.43134    -0.42988
    -0.42740    -0.42450    -0.42389    -0.42199    -0.42004    -0.41884
    -0.41744    -0.41700    -0.41148    -0.41071    -0.40628    -0.40537
    -0.40089    -0.40044    -0.39984    -0.39669    -0.39319    -0.39187
    -0.39145    -0.38955    -0.38919    -0.38859    -0.38641    -0.38200
    -0.38058    -0.37886    -0.37773    -0.37659    -0.37290    -0.36676
    -0.36543    -0.36250    -0.35542    -0.34992    -0.34926    -0.34305
    -0.34179    -0.34074    -0.33960    -0.33760    -0.33661    -0.33429
    -0.33176    -0.32951    -0.32324    -0.32024    -0.31373    -0.30183
    -0.30138    -0.30107    -0.30008    -0.29657    -0.29529    -0.29368
    -0.29035    -0.28975    -0.28725    -0.28654    -0.28528    -0.28390
    -0.28324    -0.27891    -0.27317    -0.25486    -0.06442    -0.02490
    -0.02008    -0.00318    -0.00150     0.01224     0.01567     0.01820
     0.01985     0.02195
 
  Peak memory usage:    859 Mb
  
  end of program scf
   
 Time(scf)  user:    10402.0  user+sys:    10457.0  wallclock:    15738.5
  
  start of program sole
  
    SCRF                   solvation energy
  iteration          Hartrees            kcal/mol
     0               0.0000000            0.0000
     1              -0.0183534          -11.5169
  
  solvation energy not yet converged... 
  
  Peak memory usage:    635 Mb
  
  end of program sole
   
 Time(sole)  user:        0.0  user+sys:        0.0  wallclock:        0.4
  
  start of program ch
  
  gridpoints used for charge fit        16628
    out of a possible maximum of        16628
  
   Electrostatic potential fitting constrained to reproduce
     total charge:                yes
     dipole moment:               no 
     traceless quadrupole moment: no 
     traceless octapole moment:   no 
  
  Atomic charges from electrostatic potential: 
   
 Atom       C1           C2           C3           C4           C5      
 Charge   -0.11590     -0.03009     -0.19557      0.19653      0.17733
   
 Atom       C6           C7           C8           C9           C10     
 Charge   -0.24444     -0.35764     -0.09071     -0.10353     -0.29389
   
 Atom       C11          O12          Si13         C14          C15     
 Charge    0.15115     -0.13121     -0.27759      0.10851      0.19963
   
 Atom       C16          C17          C18          C19          C20     
 Charge    0.29884     -0.15383     -0.50947     -0.28078      0.14500
   
 Atom       Si21         O22          C23          C24          P25     
 Charge   -0.07728     -0.23148     -0.17902     -0.10193      0.77935
   
 Atom       O26          N27          C28          C29          C30     
 Charge   -0.47435     -0.54990      0.22275      0.13906      0.17282
   
 Atom       C31          C32          C33          C34          C35     
 Charge   -0.04038     -0.04778      0.08803     -0.22343     -0.20615
   
 Atom       C36          C37          C38          C39          C40     
 Charge   -0.16825     -0.16790     -0.10471     -0.11071     -0.03787
   
 Atom       C41          C42          C43          C44          C45     
 Charge    0.03215      0.00527     -0.07333     -0.17129     -0.14979
   
 Atom       C46          C47          C48          C49          C50     
 Charge   -0.11141     -0.17701     -0.11419     -0.15579     -0.15343
   
 Atom       C51          C52          C53          C54          C55     
 Charge   -0.10379     -0.19885     -0.11073     -0.17351     -0.21080
   
 Atom       C56          C57          C58          C59          C60     
 Charge   -0.06120     -0.24470     -0.23104     -0.08872     -0.18675
   
 Atom       C61          C62          C63          C64          C65     
 Charge   -0.14406     -0.15825     -0.08066     -0.10622     -0.20251
   
 Atom       C66          C67          C68          C69          C70     
 Charge    0.17631     -0.27363      0.01216     -0.16571      0.08508
   
 Atom       N71          S72          O73          O74          C75     
 Charge   -0.51611      0.63622     -0.42930     -0.42513      0.63864
   
 Atom       C76          C77          C78          C79          N80     
 Charge   -0.50309      0.22838     -0.48923      0.45119     -0.66040
   
 Atom       N81          C82          C83          C84          C85     
 Charge   -0.12097     -0.06164     -0.22050     -0.28926      0.40703
   
 Atom       H86          H87          H88          H89          H90     
 Charge    0.12848      0.15512      0.15066      0.19309      0.13641
   
 Atom       H91          H92          H93          H94          H95     
 Charge    0.12914      0.23155      0.16415      0.15362      0.13658
   
 Atom       H96          H97          H98          H99          H100    
 Charge    0.14014      0.10791      0.14862      0.08724      0.11888
   
 Atom       H101         H102         H103         H104         H105    
 Charge    0.12475      0.11425      0.08324      0.06236      0.11920
   
 Atom       H106         H107         H108         H109         H110    
 Charge    0.12282      0.14216      0.13567      0.14475      0.13800
   
 Atom       H111         H112         H113         H114         H115    
 Charge    0.12980      0.14340      0.12689      0.14912      0.12533
   
 Atom       H116         H117         H118         H119         H120    
 Charge    0.13082      0.14073      0.11233      0.14407      0.15597
   
 Atom       H121         H122         H123         H124         H125    
 Charge    0.13116      0.14072      0.13780      0.12988      0.07857
   
 Atom       H126         H127         H128         H129         H130    
 Charge    0.14249      0.12720      0.19515      0.07397      0.14873
   
 Atom       H131         H132         H133         H134         H135    
 Charge    0.14228      0.21423      0.11258      0.21219      0.06206
   
 Atom       H136         H137         H138         H139         H140    
 Charge    0.21676      0.19567      0.18918      0.19394     -0.02749
   
 Atom       S141         O142         C143         O144         F145    
 Charge    0.65660     -0.39637      0.35431     -0.45188     -0.12483
   
 Atom       F146         F147         H148    
 Charge   -0.11829     -0.09949      0.35291
  
  sum of atomic charges:     0.000000
   
 RMS Error   1.04E-03 hartrees
 
  Peak memory usage:    588 Mb
  
  end of program ch
   
 Time(ch)  user:       19.0  user+sys:       20.0  wallclock:       27.0
  
  start of program post
  
  Writing input files for PBF
  Peak memory usage:    536 Mb
  
  end of program post
   
 Time(post)  user:        0.0  user+sys:        0.0  wallclock:        0.5

  start of program pbf

Pbf Version 4.00

Molecular surface area:      832.30105   [A2]
Reaction field energy:       -20.47457   [kT]
  Peak memory usage: 562 Mb

  end of program pbf

 Time(pbf)  user:        7.9  user+sys:        8.0  wallclock:       10.1
  
  start of program solv
  
   number of surface charges from PBF   13674
   sum of surface charges     -0.00028
   
  nuclear repulsion energy.......   20840.631043815 hartrees
  Peak memory usage:    701 Mb
  
  end of program solv
   
 Time(solv)  user:       38.0  user+sys:       38.0  wallclock:       42.2
  
  start of program scf
  
  
       i  u  d  i  g                   
       t  p  i  c  r                                 RMS    maximum
       e  d  i  u  i                       energy  density   DIIS  
       r  t  s  t  d       total energy    change  change    error 
  
etot    1  N  N  1  U   -5575.60146858001           6.9E-06  1.9E-04
etot    2  N  N  1  U   -5575.60147193668  3.4E-06  0.0E+00  0.0E+00
  
  
 Energy components, in hartrees:
   (A)  Total zero-electron terms....   20843.38916389432
   (B)    Nuclear-nuclear............   20840.63104381509
   (C)    Nuclear-solvent............       2.75812007923
   (E)  Total one-electron terms.....  -49214.03879027746
   (F)    Electron-nuclear...........  -54747.32645147239
   (G)    Electron-solvent...........      -2.80052112648
   (H)    Kinetic....................    5536.08818232140
   (I)  Total two-electron terms.....   22795.04815444646
   (J)    Coulomb....................   23446.32111920752
   (K)    Exchange+Correlation.......    -651.27296476105
   (L)  Electronic energy............  -26418.99063583100  (E+I)
   (N)  Total quantum mech. energy...   -5575.60147193668  (A+L)
   (O)  Gas phase energy.............   -5575.56062792775
   (P)  Solution phase energy........   -5575.58027141305  (Q+R+S)
   (Q)    Total solute energy........   -5575.55907088943  (N-C-G)
   (R)    Total solvent energy.......      -0.02120052362  (C/2+G/2)
   (S)    Solute cavity energy.......       0.00000000000
   (U)  Reorganization energy........       0.00155703831  (Q-O)
   (V)  Solvation energy.............      -0.01964348531  (P-O)
  
 SCFE:  Solution phase energy: DFT(m06-2x)      -5575.58027141305 hartrees
        SCF iterations:   2
  
 
 HOMO energy:    -0.26752
 LUMO energy:    -0.06384
 
  Orbital energies (hartrees): 
   -55.38243   -50.58500   -50.37775   -40.99749   -31.91337   -30.66262
   -29.11525   -25.13626   -24.62707   -24.13341   -23.87670   -21.87531
   -20.71357   -20.44711   -20.09644   -19.32568   -19.28239   -18.52261
   -18.19877   -17.95756   -16.52034   -15.65568   -14.76077   -14.60051
   -14.31488   -14.05912   -13.88291   -12.91052   -12.85814   -12.64599
   -12.61867   -12.56380   -12.44175   -12.25889   -12.25411   -12.14305
   -12.08370   -12.03393   -11.94339   -11.83669   -11.81116   -11.71765
   -11.70805   -11.58734   -11.32612   -11.29828   -11.27698   -11.15625
   -11.10044   -11.07535   -10.92575   -10.87507   -10.74633   -10.71270
   -10.69807   -10.68568   -10.67084   -10.65081   -10.63220   -10.57642
   -10.57639   -10.56704   -10.55452   -10.55034   -10.54321   -10.53977
   -10.46583   -10.41942   -10.39689   -10.31900   -10.31244   -10.30986
   -10.28766   -10.22282   -10.22186   -10.18763   -10.13313   -10.13264
   -10.11695   -10.11597   -10.09345   -10.09200   -10.06275   -10.00491
    -9.99308    -9.92391    -9.90918    -9.89482    -9.69600    -9.69577
    -9.69183    -9.65882    -9.64581    -9.60912    -9.49520    -9.46588
    -9.45157    -9.40957    -9.38872    -9.25387    -9.09821    -9.05700
    -9.01399    -8.93156    -8.85721    -8.56699    -8.01709    -7.64658
    -6.77257    -6.67840    -6.40961    -6.35402    -1.68007    -1.42294
    -1.39304    -1.38365    -1.35825    -1.18091    -1.08188    -1.05350
    -0.99766    -0.95672    -0.93475    -0.90641    -0.88121    -0.87486
    -0.85615    -0.84067    -0.84039    -0.83966    -0.83172    -0.82469
    -0.81687    -0.81280    -0.81194    -0.81070    -0.80005    -0.79815
    -0.79735    -0.79579    -0.79318    -0.78795    -0.78561    -0.78426
    -0.78386    -0.78132    -0.78030    -0.77891    -0.77367    -0.77362
    -0.77295    -0.76867    -0.76379    -0.76077    -0.75563    -0.75463
    -0.75209    -0.74866    -0.74825    -0.74816    -0.74753    -0.74507
    -0.74348    -0.74272    -0.74178    -0.73929    -0.73271    -0.72783
    -0.72455    -0.72390    -0.72194    -0.72073    -0.71941    -0.71869
    -0.71527    -0.70968    -0.70290    -0.70065    -0.68948    -0.68546
    -0.67527    -0.67302    -0.67256    -0.66523    -0.65636    -0.65473
    -0.65078    -0.64746    -0.64626    -0.64173    -0.64027    -0.63952
    -0.63864    -0.63762    -0.63192    -0.62967    -0.62635    -0.62527
    -0.62510    -0.62349    -0.62180    -0.62150    -0.61930    -0.61859
    -0.61649    -0.61370    -0.60855    -0.60640    -0.60253    -0.60252
    -0.59794    -0.59493    -0.59476    -0.59358    -0.59097    -0.59057
    -0.58923    -0.58893    -0.58826    -0.58414    -0.57597    -0.57248
    -0.56150    -0.56019    -0.55698    -0.55603    -0.55135    -0.54879
    -0.54590    -0.54463    -0.53840    -0.53776    -0.53459    -0.53366
    -0.53278    -0.53141    -0.52919    -0.52646    -0.52521    -0.52510
    -0.52493    -0.52221    -0.52170    -0.52127    -0.52114    -0.52079
    -0.52013    -0.51738    -0.51573    -0.51561    -0.51469    -0.51154
    -0.50914    -0.50504    -0.50415    -0.50410    -0.50287    -0.50114
    -0.49976    -0.49947    -0.49826    -0.49677    -0.49605    -0.49605
    -0.49572    -0.49402    -0.49402    -0.49387    -0.49354    -0.48917
    -0.48892    -0.48581    -0.48517    -0.47966    -0.47742    -0.47666
    -0.47538    -0.47391    -0.47296    -0.47249    -0.47184    -0.47025
    -0.47021    -0.46996    -0.46798    -0.46688    -0.46455    -0.45855
    -0.45808    -0.45725    -0.45558    -0.45528    -0.45357    -0.45347
    -0.45339    -0.45335    -0.45117    -0.45034    -0.44933    -0.44854
    -0.44737    -0.44551    -0.44141    -0.44047    -0.44010    -0.43464
    -0.43322    -0.42908    -0.42786    -0.42724    -0.42575    -0.42501
    -0.41905    -0.41760    -0.40667    -0.40374    -0.40266    -0.40238
    -0.40025    -0.39660    -0.36867    -0.36196    -0.35745    -0.34965
    -0.34576    -0.33859    -0.33724    -0.33495    -0.33449    -0.32361
    -0.31584    -0.31016    -0.30896    -0.30733    -0.30626    -0.30461
    -0.30024    -0.29518    -0.29298    -0.26752    -0.06384    -0.02448
    -0.02008    -0.00285    -0.00156     0.01222     0.01591     0.01820
     0.01974     0.02217
 
  Peak memory usage:    859 Mb
  
  end of program scf
   
 Time(scf)  user:     2594.0  user+sys:     2606.0  wallclock:     2888.5
  
  start of program sole
  
    SCRF                   solvation energy
  iteration          Hartrees            kcal/mol
     0               0.0000000            0.0000
     1              -0.0183534          -11.5169
     2              -0.0196435          -12.3265
  
  solvation energy not yet converged... 
  
  Peak memory usage:    635 Mb
  
  end of program sole
   
 Time(sole)  user:        0.0  user+sys:        0.0  wallclock:        0.2
  
  start of program ch
  
  gridpoints used for charge fit        16628
    out of a possible maximum of        16628
  
   Electrostatic potential fitting constrained to reproduce
     total charge:                yes
     dipole moment:               no 
     traceless quadrupole moment: no 
     traceless octapole moment:   no 
  
  Atomic charges from electrostatic potential: 
   
 Atom       C1           C2           C3           C4           C5      
 Charge   -0.11640     -0.03033     -0.19545      0.19642      0.17794
   
 Atom       C6           C7           C8           C9           C10     
 Charge   -0.24548     -0.35950     -0.09012     -0.10578     -0.29471
   
 Atom       C11          O12          Si13         C14          C15     
 Charge    0.15365     -0.12951     -0.28102      0.10941      0.19823
   
 Atom       C16          C17          C18          C19          C20     
 Charge    0.29864     -0.15469     -0.51000     -0.28107      0.14616
   
 Atom       Si21         O22          C23          C24          P25     
 Charge   -0.07814     -0.23019     -0.17865     -0.10177      0.77667
   
 Atom       O26          N27          C28          C29          C30     
 Charge   -0.47285     -0.54851      0.22207      0.13997      0.17354
   
 Atom       C31          C32          C33          C34          C35     
 Charge   -0.04052     -0.04885      0.08634     -0.22352     -0.20702
   
 Atom       C36          C37          C38          C39          C40     
 Charge   -0.16897     -0.16897     -0.10637     -0.11189     -0.03858
   
 Atom       C41          C42          C43          C44          C45     
 Charge    0.03238      0.00529     -0.07323     -0.17143     -0.14954
   
 Atom       C46          C47          C48          C49          C50     
 Charge   -0.11175     -0.17689     -0.11417     -0.15564     -0.15436
   
 Atom       C51          C52          C53          C54          C55     
 Charge   -0.10465     -0.19935     -0.11054     -0.17253     -0.21098
   
 Atom       C56          C57          C58          C59          C60     
 Charge   -0.06175     -0.24501     -0.23199     -0.08826     -0.18691
   
 Atom       C61          C62          C63          C64          C65     
 Charge   -0.14450     -0.15737     -0.08134     -0.10448     -0.20234
   
 Atom       C66          C67          C68          C69          C70     
 Charge    0.17376     -0.27482      0.01154     -0.16505      0.08131
   
 Atom       N71          S72          O73          O74          C75     
 Charge   -0.51619      0.63321     -0.43125     -0.42347      0.63631
   
 Atom       C76          C77          C78          C79          N80     
 Charge   -0.50387      0.23102     -0.48705      0.45283     -0.66554
   
 Atom       N81          C82          C83          C84          C85     
 Charge   -0.12125     -0.05853     -0.21761     -0.28961      0.40574
   
 Atom       H86          H87          H88          H89          H90     
 Charge    0.12872      0.15578      0.15108      0.19390      0.13709
   
 Atom       H91          H92          H93          H94          H95     
 Charge    0.12943      0.23191      0.16457      0.15410      0.13717
   
 Atom       H96          H97          H98          H99          H100    
 Charge    0.14026      0.10791      0.14918      0.08802      0.11886
   
 Atom       H101         H102         H103         H104         H105    
 Charge    0.12466      0.11417      0.08322      0.06199      0.11927
   
 Atom       H106         H107         H108         H109         H110    
 Charge    0.12270      0.14220      0.13630      0.14537      0.13863
   
 Atom       H111         H112         H113         H114         H115    
 Charge    0.13036      0.14375      0.12676      0.14967      0.12626
   
 Atom       H116         H117         H118         H119         H120    
 Charge    0.13144      0.14094      0.11303      0.14466      0.15658
   
 Atom       H121         H122         H123         H124         H125    
 Charge    0.13176      0.14131      0.13818      0.13029      0.07966
   
 Atom       H126         H127         H128         H129         H130    
 Charge    0.14315      0.12802      0.19490      0.07416      0.14917
   
 Atom       H131         H132         H133         H134         H135    
 Charge    0.14338      0.21442      0.11315      0.21337      0.06284
   
 Atom       H136         H137         H138         H139         H140    
 Charge    0.21532      0.19551      0.18976      0.19469     -0.02734
   
 Atom       S141         O142         C143         O144         F145    
 Charge    0.65444     -0.39490      0.35436     -0.45068     -0.12474
   
 Atom       F146         F147         H148    
 Charge   -0.11796     -0.09948      0.35299
  
  sum of atomic charges:     0.000000
   
 RMS Error   1.04E-03 hartrees
 
  Peak memory usage:    588 Mb
  
  end of program ch
   
 Time(ch)  user:       19.0  user+sys:       20.0  wallclock:       20.7
  
  start of program post
  
  Writing input files for PBF
  Peak memory usage:    536 Mb
  
  end of program post
   
 Time(post)  user:        0.0  user+sys:        0.0  wallclock:        0.2

  start of program pbf

Pbf Version 4.00

Molecular surface area:      832.30105   [A2]
Reaction field energy:       -20.87998   [kT]
  Peak memory usage: 562 Mb

  end of program pbf

 Time(pbf)  user:        7.6  user+sys:        7.6  wallclock:       13.8
  
  start of program solv
  
   number of surface charges from PBF   13674
   sum of surface charges     -0.00028
   
  nuclear repulsion energy.......   20840.631043815 hartrees
  Peak memory usage:    701 Mb
  
  end of program solv
   
 Time(solv)  user:       38.0  user+sys:       38.0  wallclock:       40.3
  
  start of program scf
  
  
       i  u  d  i  g                   
       t  p  i  c  r                                 RMS    maximum
       e  d  i  u  i                       energy  density   DIIS  
       r  t  s  t  d       total energy    change  change    error 
  
etot    1  N  N  1  U   -5575.60186973579           5.9E-06  1.6E-04
etot    2  N  N  1  U   -5575.60185117305 -1.9E-05  0.0E+00  0.0E+00
  
  
 Energy components, in hartrees:
   (A)  Total zero-electron terms....   20843.44212586477
   (B)    Nuclear-nuclear............   20840.63104381509
   (C)    Nuclear-solvent............       2.81108204968
   (E)  Total one-electron terms.....  -49213.77934070920
   (F)    Electron-nuclear...........  -54746.99540884168
   (G)    Electron-solvent...........      -2.85372688718
   (H)    Kinetic....................    5536.06979501966
   (I)  Total two-electron terms.....   22794.73536367137
   (J)    Coulomb....................   23446.00652950270
   (K)    Exchange+Correlation.......    -651.27116583133
   (L)  Electronic energy............  -26419.04397703783  (E+I)
   (N)  Total quantum mech. energy...   -5575.60185117305  (A+L)
   (O)  Gas phase energy.............   -5575.56062792775
   (P)  Solution phase energy........   -5575.58052875431  (Q+R+S)
   (Q)    Total solute energy........   -5575.55920633556  (N-C-G)
   (R)    Total solvent energy.......      -0.02132241875  (C/2+G/2)
   (S)    Solute cavity energy.......       0.00000000000
   (U)  Reorganization energy........       0.00142159219  (Q-O)
   (V)  Solvation energy.............      -0.01990082656  (P-O)
  
 SCFE:  Solution phase energy: DFT(m06-2x)      -5575.58052875431 hartrees
        SCF iterations:   2
  
 
 HOMO energy:    -0.25512
 LUMO energy:    -0.06492
 
  Orbital energies (hartrees): 
   -90.17990   -90.15563   -78.20697   -67.00730   -67.00682   -25.29568
   -25.29532   -25.29135   -19.68738   -19.68417   -19.66051   -19.65546
   -19.63499   -19.63033   -19.60157   -14.82185   -14.82160   -14.79698
   -14.74063   -10.80967   -10.66456   -10.63861   -10.62310   -10.62186
   -10.61448   -10.60918   -10.60161   -10.58970   -10.58933   -10.58538
   -10.58178   -10.57827   -10.57208   -10.57091   -10.57003   -10.56870
   -10.56809   -10.56731   -10.56384   -10.56377   -10.56317   -10.56251
   -10.56196   -10.56077   -10.56014   -10.55852   -10.55362   -10.55358
   -10.55262   -10.55248   -10.55192   -10.55169   -10.55081   -10.55037
   -10.54994   -10.54983   -10.54935   -10.54932   -10.54898   -10.54872
   -10.54872   -10.54790   -10.54777   -10.54745   -10.54711   -10.54699
   -10.54670   -10.54646   -10.54634   -10.54557   -10.54504   -10.54360
   -10.54301   -10.54264   -10.54171   -10.54108   -10.54062   -10.53924
   -10.53922   -10.53915   -10.53767   -10.53627   -10.53577   -10.53496
   -10.53489   -10.53326   -10.53313   -10.53254   -10.53165   -10.52781
   -10.52559   -10.52314    -8.49054    -8.46451    -6.98667    -6.41271
    -6.41174    -6.41099    -6.38647    -6.38599    -6.38575    -5.53835
    -5.53783    -5.10508    -5.10393    -5.10266    -3.84819    -3.84787
    -3.84757    -3.84756    -3.84731    -3.84720    -1.46051    -1.37040
    -1.36823    -1.25275    -1.22922    -1.21989    -1.18258    -1.13842
    -1.11150    -1.10446    -1.08808    -1.08615    -1.07089    -0.99443
    -0.98162    -0.97303    -0.96753    -0.94410    -0.94387    -0.94076
    -0.93770    -0.93293    -0.92918    -0.92711    -0.92171    -0.91067
    -0.90454    -0.89666    -0.89031    -0.87892    -0.85355    -0.85350
    -0.84304    -0.84154    -0.84065    -0.83703    -0.83560    -0.83539
    -0.83321    -0.83131    -0.82841    -0.82799    -0.82696    -0.82542
    -0.82462    -0.82181    -0.82113    -0.82012    -0.81684    -0.80866
    -0.80066    -0.76295    -0.75791    -0.74104    -0.73041    -0.71751
    -0.70999    -0.70299    -0.69709    -0.69496    -0.69077    -0.68861
    -0.68674    -0.68674    -0.68446    -0.68081    -0.67910    -0.67759
    -0.67389    -0.67138    -0.67082    -0.66899    -0.66804    -0.66490
    -0.66178    -0.66004    -0.65939    -0.65452    -0.65349    -0.65038
    -0.64845    -0.64557    -0.63484    -0.62478    -0.61510    -0.60905
    -0.60702    -0.60112    -0.59886    -0.58743    -0.58321    -0.58090
    -0.57926    -0.57742    -0.57617    -0.57299    -0.57219    -0.57143
    -0.56760    -0.56478    -0.56127    -0.55941    -0.55033    -0.54866
    -0.54760    -0.54485    -0.53951    -0.53764    -0.53693    -0.53412
    -0.53240    -0.52828    -0.52618    -0.52504    -0.52295    -0.52184
    -0.51661    -0.51549    -0.51416    -0.51330    -0.51196    -0.51016
    -0.50878    -0.50797    -0.50534    -0.50346    -0.50223    -0.50005
    -0.49802    -0.49751    -0.49694    -0.49671    -0.49493    -0.49471
    -0.49305    -0.49252    -0.49063    -0.49041    -0.48868    -0.48727
    -0.48402    -0.48328    -0.48198    -0.48132    -0.47997    -0.47689
    -0.47447    -0.47338    -0.46978    -0.46895    -0.46794    -0.46334
    -0.46181    -0.45387    -0.45196    -0.44887    -0.44781    -0.44620
    -0.44304    -0.44224    -0.44119    -0.43412    -0.43195    -0.43034
    -0.42832    -0.42492    -0.42428    -0.42234    -0.42042    -0.41942
    -0.41774    -0.41742    -0.41196    -0.41108    -0.40720    -0.40619
    -0.40162    -0.40130    -0.40015    -0.39725    -0.39368    -0.39226
    -0.39174    -0.39044    -0.38957    -0.38903    -0.38687    -0.38240
    -0.38100    -0.37918    -0.37845    -0.37721    -0.37327    -0.36724
    -0.36568    -0.36313    -0.35591    -0.35073    -0.35046    -0.34347
    -0.34222    -0.34127    -0.34015    -0.33818    -0.33721    -0.33405
    -0.33231    -0.32996    -0.32372    -0.32094    -0.31374    -0.30215
    -0.30187    -0.30143    -0.30056    -0.29681    -0.29571    -0.29414
    -0.29082    -0.29029    -0.28768    -0.28693    -0.28573    -0.28436
    -0.28390    -0.27968    -0.27347    -0.25512    -0.06492    -0.02560
    -0.02036    -0.00339    -0.00185     0.01190     0.01543     0.01780
     0.01938     0.02166
 
  Peak memory usage:    859 Mb
  
  end of program scf
   
 Time(scf)  user:     2563.0  user+sys:     2575.0  wallclock:     2705.1
  
  start of program sole
  
    SCRF                   solvation energy
  iteration          Hartrees            kcal/mol
     0               0.0000000            0.0000
     1              -0.0183534          -11.5169
     2              -0.0196435          -12.3265
     3              -0.0199008          -12.4880
  
  solvation energy not yet converged... 
  
  Peak memory usage:    635 Mb
  
  end of program sole
   
 Time(sole)  user:        0.0  user+sys:        0.0  wallclock:        0.2
  
  start of program ch
  
  gridpoints used for charge fit        16628
    out of a possible maximum of        16628
  
   Electrostatic potential fitting constrained to reproduce
     total charge:                yes
     dipole moment:               no 
     traceless quadrupole moment: no 
     traceless octapole moment:   no 
  
  Atomic charges from electrostatic potential: 
   
 Atom       C1           C2           C3           C4           C5      
 Charge   -0.11576     -0.03004     -0.19642      0.19665      0.17728
   
 Atom       C6           C7           C8           C9           C10     
 Charge   -0.24495     -0.35914     -0.09111     -0.10430     -0.29399
   
 Atom       C11          O12          Si13         C14          C15     
 Charge    0.15277     -0.13064     -0.27842      0.10856      0.19867
   
 Atom       C16          C17          C18          C19          C20     
 Charge    0.29877     -0.15387     -0.51050     -0.28104      0.14704
   
 Atom       Si21         O22          C23          C24          P25     
 Charge   -0.07798     -0.23043     -0.17964     -0.10255      0.77803
   
 Atom       O26          N27          C28          C29          C30     
 Charge   -0.47382     -0.54870      0.22323      0.13954      0.17416
   
 Atom       C31          C32          C33          C34          C35     
 Charge   -0.03972     -0.04796      0.08798     -0.22387     -0.20621
   
 Atom       C36          C37          C38          C39          C40     
 Charge   -0.16888     -0.16802     -0.10549     -0.11022     -0.03891
   
 Atom       C41          C42          C43          C44          C45     
 Charge    0.03312      0.00565     -0.07270     -0.17176     -0.14823
   
 Atom       C46          C47          C48          C49          C50     
 Charge   -0.11194     -0.17767     -0.11488     -0.15667     -0.15407
   
 Atom       C51          C52          C53          C54          C55     
 Charge   -0.10433     -0.19917     -0.11193     -0.17450     -0.21155
   
 Atom       C56          C57          C58          C59          C60     
 Charge   -0.06164     -0.24571     -0.23201     -0.08908     -0.18778
   
 Atom       C61          C62          C63          C64          C65     
 Charge   -0.14468     -0.15850     -0.08268     -0.10704     -0.20294
   
 Atom       C66          C67          C68          C69          C70     
 Charge    0.17565     -0.27233      0.01178     -0.16703      0.08641
   
 Atom       N71          S72          O73          O74          C75     
 Charge   -0.51391      0.63741     -0.43267     -0.42783      0.64054
   
 Atom       C76          C77          C78          C79          N80     
 Charge   -0.50536      0.22883     -0.49088      0.45267     -0.66305
   
 Atom       N81          C82          C83          C84          C85     
 Charge   -0.11830     -0.06445     -0.22151     -0.28962      0.40576
   
 Atom       H86          H87          H88          H89          H90     
 Charge    0.12843      0.15597      0.15095      0.19350      0.13727
   
 Atom       H91          H92          H93          H94          H95     
 Charge    0.12913      0.23182      0.16464      0.15433      0.13737
   
 Atom       H96          H97          H98          H99          H100    
 Charge    0.14008      0.10771      0.14897      0.08740      0.11877
   
 Atom       H101         H102         H103         H104         H105    
 Charge    0.12444      0.11430      0.08297      0.06171      0.11914
   
 Atom       H106         H107         H108         H109         H110    
 Charge    0.12264      0.14248      0.13632      0.14547      0.13864
   
 Atom       H111         H112         H113         H114         H115    
 Charge    0.13040      0.14355      0.12639      0.14953      0.12641
   
 Atom       H116         H117         H118         H119         H120    
 Charge    0.13165      0.14077      0.11298      0.14472      0.15655
   
 Atom       H121         H122         H123         H124         H125    
 Charge    0.13188      0.14140      0.13820      0.13037      0.07941
   
 Atom       H126         H127         H128         H129         H130    
 Charge    0.14354      0.12782      0.19469      0.07382      0.14949
   
 Atom       H131         H132         H133         H134         H135    
 Charge    0.14212      0.21445      0.11361      0.21410      0.06272
   
 Atom       H136         H137         H138         H139         H140    
 Charge    0.21594      0.19640      0.19081      0.19503     -0.02673
   
 Atom       S141         O142         C143         O144         F145    
 Charge    0.65394     -0.39419      0.35354     -0.45021     -0.12478
   
 Atom       F146         F147         H148    
 Charge   -0.11802     -0.09935      0.35307
  
  sum of atomic charges:     0.000000
   
 RMS Error   1.04E-03 hartrees
 
  Peak memory usage:    588 Mb
  
  end of program ch
   
 Time(ch)  user:       18.0  user+sys:       19.0  wallclock:       22.0
  
  start of program post
  
  Writing input files for PBF
  Peak memory usage:    536 Mb
  
  end of program post
   
 Time(post)  user:        0.0  user+sys:        0.0  wallclock:        0.2

  start of program pbf

Pbf Version 4.00

Molecular surface area:      832.30105   [A2]
Reaction field energy:       -20.73119   [kT]
  Peak memory usage: 562 Mb

  end of program pbf

 Time(pbf)  user:        7.6  user+sys:        7.7  wallclock:        7.7
  
  start of program solv
  
   number of surface charges from PBF   13674
   sum of surface charges     -0.00028
   
  nuclear repulsion energy.......   20840.631043815 hartrees
  Peak memory usage:    701 Mb
  
  end of program solv
   
 Time(solv)  user:       37.0  user+sys:       37.0  wallclock:       37.8
  
  start of program scf
  
  
       i  u  d  i  g                   
       t  p  i  c  r                                 RMS    maximum
       e  d  i  u  i                       energy  density   DIIS  
       r  t  s  t  d       total energy    change  change    error 
  
etot    1  N  N  1  U   -5575.60171715546           9.0E-06  2.6E-04
etot    2  N  Y  1  U   -5575.60165702633 -6.0E-05  5.9E-06  4.3E-04
etot    3  N  Y  1  U   -5575.60174406529  8.7E-05  2.0E-07  1.4E-05
etot    4  N  N  1  U   -5575.60174405494 -1.0E-08  0.0E+00  0.0E+00
  
  
 Energy components, in hartrees:
   (A)  Total zero-electron terms....   20843.41400420733
   (B)    Nuclear-nuclear............   20840.63104381509
   (C)    Nuclear-solvent............       2.78296039224
   (E)  Total one-electron terms.....  -49213.93093806702
   (F)    Electron-nuclear...........  -54747.18302673384
   (G)    Electron-solvent...........      -2.82555654347
   (H)    Kinetic....................    5536.07764521030
   (I)  Total two-electron terms.....   22794.91518980475
   (J)    Coulomb....................   23446.18706499448
   (K)    Exchange+Correlation.......    -651.27187518973
   (L)  Electronic energy............  -26419.01574826227  (E+I)
   (N)  Total quantum mech. energy...   -5575.60174405494  (A+L)
   (O)  Gas phase energy.............   -5575.56062792775
   (P)  Solution phase energy........   -5575.58044597933  (Q+R+S)
   (Q)    Total solute energy........   -5575.55914790371  (N-C-G)
   (R)    Total solvent energy.......      -0.02129807562  (C/2+G/2)
   (S)    Solute cavity energy.......       0.00000000000
   (U)  Reorganization energy........       0.00148002404  (Q-O)
   (V)  Solvation energy.............      -0.01981805158  (P-O)
  
 SCFE:  Solution phase energy: DFT(m06-2x)      -5575.58044597933 hartrees
        SCF iterations:   4
  
 
 HOMO energy:    -0.25498
 LUMO energy:    -0.06425
 
  Orbital energies (hartrees): 
   -90.17794   -90.15517   -78.20645   -67.00666   -67.00610   -25.29568
   -25.29533   -25.29131   -19.68680   -19.68381   -19.65943   -19.65779
   -19.63409   -19.62938   -19.60147   -14.82041   -14.81798   -14.79392
   -14.74020   -10.80965   -10.66159   -10.63615   -10.62263   -10.62121
   -10.61627   -10.60901   -10.60062   -10.59081   -10.58922   -10.58329
   -10.58304   -10.57865   -10.57189   -10.57112   -10.57009   -10.56846
   -10.56784   -10.56584   -10.56552   -10.56455   -10.56358   -10.56292
   -10.56205   -10.56051   -10.55980   -10.55825   -10.55363   -10.55350
   -10.55284   -10.55258   -10.55214   -10.55178   -10.55109   -10.55018
   -10.55017   -10.54994   -10.54962   -10.54948   -10.54917   -10.54898
   -10.54895   -10.54782   -10.54764   -10.54748   -10.54707   -10.54693
   -10.54679   -10.54603   -10.54590   -10.54575   -10.54462   -10.54331
   -10.54265   -10.54205   -10.54160   -10.54143   -10.54041   -10.53939
   -10.53912   -10.53850   -10.53786   -10.53626   -10.53503   -10.53498
   -10.53436   -10.53277   -10.53264   -10.53183   -10.53071   -10.52702
   -10.52463   -10.52254    -8.48869    -8.46404    -6.98616    -6.41085
    -6.40989    -6.40913    -6.38600    -6.38552    -6.38528    -5.53773
    -5.53713    -5.10458    -5.10343    -5.10216    -3.84756    -3.84724
    -3.84694    -3.84686    -3.84661    -3.84650    -1.46045    -1.37034
    -1.36817    -1.25188    -1.22871    -1.21929    -1.18213    -1.13799
    -1.11130    -1.10374    -1.08670    -1.08574    -1.06861    -0.99396
    -0.98144    -0.97254    -0.96743    -0.94403    -0.94370    -0.94077
    -0.93732    -0.93276    -0.92897    -0.92711    -0.92164    -0.91056
    -0.90377    -0.89682    -0.89012    -0.87826    -0.85348    -0.85324
    -0.84285    -0.84142    -0.84061    -0.83689    -0.83546    -0.83531
    -0.83320    -0.83101    -0.82828    -0.82776    -0.82688    -0.82518
    -0.82449    -0.82156    -0.82094    -0.81986    -0.81664    -0.80782
    -0.80051    -0.76254    -0.75709    -0.74058    -0.73015    -0.71663
    -0.70974    -0.70285    -0.69689    -0.69452    -0.69058    -0.68825
    -0.68665    -0.68628    -0.68432    -0.68068    -0.67890    -0.67740
    -0.67383    -0.67137    -0.67065    -0.66892    -0.66802    -0.66465
    -0.66163    -0.65989    -0.65925    -0.65425    -0.65333    -0.64953
    -0.64830    -0.64551    -0.63452    -0.62452    -0.61462    -0.60830
    -0.60668    -0.60089    -0.59871    -0.58695    -0.58261    -0.58080
    -0.57923    -0.57719    -0.57609    -0.57287    -0.57201    -0.57119
    -0.56726    -0.56445    -0.56116    -0.55928    -0.55012    -0.54820
    -0.54712    -0.54452    -0.53910    -0.53743    -0.53666    -0.53378
    -0.53218    -0.52800    -0.52595    -0.52492    -0.52269    -0.52176
    -0.51659    -0.51530    -0.51386    -0.51305    -0.51157    -0.50989
    -0.50852    -0.50779    -0.50525    -0.50334    -0.50216    -0.49986
    -0.49762    -0.49721    -0.49661    -0.49627    -0.49486    -0.49453
    -0.49293    -0.49230    -0.49043    -0.49000    -0.48854    -0.48707
    -0.48385    -0.48319    -0.48187    -0.48119    -0.47994    -0.47655
    -0.47443    -0.47320    -0.47026    -0.46885    -0.46775    -0.46318
    -0.46176    -0.45374    -0.45179    -0.44876    -0.44763    -0.44590
    -0.44286    -0.44204    -0.44072    -0.43376    -0.43153    -0.43012
    -0.42777    -0.42473    -0.42413    -0.42218    -0.42010    -0.41908
    -0.41760    -0.41720    -0.41171    -0.41076    -0.40691    -0.40585
    -0.40101    -0.40087    -0.40001    -0.39686    -0.39347    -0.39215
    -0.39160    -0.39014    -0.38949    -0.38884    -0.38652    -0.38215
    -0.38070    -0.37897    -0.37824    -0.37674    -0.37301    -0.36690
    -0.36534    -0.36262    -0.35558    -0.35013    -0.34952    -0.34325
    -0.34175    -0.34094    -0.33975    -0.33776    -0.33693    -0.33411
    -0.33188    -0.32969    -0.32339    -0.32018    -0.31356    -0.30211
    -0.30172    -0.30131    -0.30031    -0.29679    -0.29542    -0.29383
    -0.29054    -0.28993    -0.28737    -0.28669    -0.28552    -0.28410
    -0.28361    -0.27943    -0.27334    -0.25498    -0.06425    -0.02491
    -0.02021    -0.00304    -0.00170     0.01208     0.01572     0.01802
     0.01957     0.02197
 
  Peak memory usage:    859 Mb
  
  end of program scf
   
 Time(scf)  user:     6563.0  user+sys:     6586.0  wallclock:     6647.6
  
  start of program sole
  
    SCRF                   solvation energy
  iteration          Hartrees            kcal/mol
     0               0.0000000            0.0000
     1              -0.0183534          -11.5169
     2              -0.0196435          -12.3265
     3              -0.0199008          -12.4880
     4              -0.0198181          -12.4360
  
  stopping: solvation energy converged
  
  iterations:   4    sfinal:    -12.4360 kcal/mol
  
  Peak memory usage:    635 Mb
  
  end of program sole
   
 Time(sole)  user:        0.0  user+sys:        0.0  wallclock:        0.1
  
  start of program post
  
  Writing input files for PBF
  Peak memory usage:    536 Mb
  
  end of program post
   
 Time(post)  user:        0.0  user+sys:        0.0  wallclock:        0.2

 Total cpu seconds     user:   61647.000   user+sys:   61959.000
  
 Total elapsed time:    97694 seconds

Job Toru-NTf-Sulfonyl-1-chkp-unrestrained-uff-acc-sol completed on tethys at Sat Feb 11 17:40:45 2017
