Job Type-I-Z-sulfonyl-bind-1-chkp-unrestrained_SPE started on tethys at Tue Mar  7 15:23:49 2017
jobid: tethys-0-58bed083

  +--------------------------------------------------------------------+
  |  Jaguar version 9.5, release  11                                   |
  |                                                                    |
  |  Copyright Schrodinger, Inc.                                       |
  |  All Rights Reserved.                                              |
  |                                                                    |
  |  The following have contributed to Jaguar (listed alphabetically): |
  |  Mike Beachy, Art Bochevarov, Dale Braden, Yixiang Cao,            |
  |  Chris Cortis, Rich Friesner, Bill Goddard, Hod Greeley,           |
  |  Tom Hughes, Leif Jacobson, Jean-Marc Langlois,                    |
  |  Daniel Mainz, Rob Murphy, Dean Philipp, Tom Pollard,              |
  |  Murco Ringnalda, Mark Watson, Haoyu Yu.                           |
  |                                                                    |
  |  Use of this program should be acknowledged in publications as:    |
  |                                                                    |
  |  Jaguar, version 9.5, Schrodinger, Inc., New York, NY, 2017.       |
  |                                                                    |
  |  A. D. Bochevarov, E. Harder, T. F. Hughes, J. R. Greenwood,       |
  |  D. A. Braden, D. M. Philipp, D. Rinaldo, M. D. Halls,             |
  |  J. Zhang, R. A. Friesner, "Jaguar: A High-Performance Quantum     |
  |  Chemistry Software Program with Strengths in Life and Materials   |
  |  Sciences", Int. J. Quantum Chem., 2013, 113(18), 2110-2142.       |
  +--------------------------------------------------------------------+
  
  start of program pre
  
  Job name: Type-I-Z-sulfonyl-bind-1-chkp-unrestrained_SPE
  Executables used: /usr/local/shared/schrodinger/current/jaguar-v9.5/bin/Linux-x86_64
  Temporary files : /scratch/ab2144/Type-I-Z-sulfonyl-bind-1-chkp-unrestrained_SPE
  Maestro file (input):  Type-I-Z-sulfonyl-bind-1-chkp-unrestrained_SPE.mae
  Maestro file (output): Type-I-Z-sulfonyl-bind-1-chkp-unrestrained_SPE.01.mae
  
  basis set:             6-31g**                         
  net molecular charge:    0
  multiplicity:            1
  
  keygrid settings 
    wispc.....   7.500E-01
    ldens.....   0
    denspc....   7.500E-01
  
   grid     daf set  nls  grid set  Q type
  ------    -------  ---  --------  ------
  coarse       1      1       1        1
  medium       2      2       2        1
  fine         3      2       3        0
  ultrafine    4      2       4        1
  charge       0      1      -1        1
  gradient     5      2       4        1
  density      0      1       0        0
  DFT-fine     0      1     -13        0
  DFT-med.     0      1     -13        0
  DFT-grad     0      1     -13        0
  DFT-der2     0      1       0        0
  DFT-cphf     0      1       0        0
  LMP2-enrg    4      2       4        1
  LMP2-grad    5      2       2        1
  DFT-cphf2    0      1       0        0
  PBF-dens     0      1       0        0
  plotting     0      1       0        0
  Rel-grad     0      1     -17        0
  
  idftgrdm  100
  ndftgrdm   50    0    0
  idftgrdf  111
  ndftgrdf   85    0    0
  idftgrdg  111
  ndftgrdg   80    3    0
  idftgrdu  433
  ndftgrdu  105    0    0
  idftgrdd  433
  ndftgrdd  105    0    0
  idftgrdc  433
  ndftgrdc   26    0    0
  idftgrdp  433
  ndftgrdp   18    0    0
  
  number of basis functions....         1680
  
 Input geometry:
                                   angstroms
  atom               x                 y                 z
  C1           -2.6633000000      2.5229000000      0.0467000000 
  C2           -5.1073000000      1.5778000000      1.1240000000 
  C3           -4.0826000000      0.6108000000      0.6752000000 
  C4           -2.8820000000      1.0592000000      0.2553000000 
  H5           -6.0430000000      1.2210000000      1.5335000000 
  C6            0.9285000000      4.0959000000     -1.7463000000 
  C7            1.0045000000      3.3504000000     -0.6343000000 
  C8           -0.2242000000      2.6735000000     -0.1307000000 
  C9           -1.4291000000      2.9760000000     -0.6540000000 
  H10           1.8009000000      4.5975000000     -2.1361000000 
  C11          -3.5947000000      3.4006000000      0.4921000000 
  C12          -4.8724000000      2.8939000000      1.0562000000 
  C13          -5.8830000000      3.8687000000      1.5131000000 
  C14          -5.6404000000      5.1810000000      1.4318000000 
  C15          -4.3629000000      5.6968000000      0.8958000000 
  C16          -3.4024000000      4.8738000000      0.4588000000 
  H17          -6.8292000000      3.5272000000      1.9159000000 
  H18          -6.3904000000      5.8842000000      1.7705000000 
  H19          -4.2014000000      6.7668000000      0.8665000000 
  H20          -2.4776000000      5.3071000000      0.1014000000 
  C21          -0.3600000000      4.2727000000     -2.4478000000 
  C22          -1.4945000000      3.7512000000     -1.9276000000 
  C23          -2.7714000000      3.9055000000     -2.6757000000 
  C24          -2.8016000000      4.5860000000     -3.8272000000 
  C25          -1.5656000000      5.1815000000     -4.3699000000 
  C26          -0.4070000000      5.0317000000     -3.7189000000 
  H27          -3.6852000000      3.4589000000     -2.3068000000 
  H28          -3.7323000000      4.6944000000     -4.3690000000 
  H29          -1.5986000000      5.7340000000     -5.3000000000 
  H30           0.4973000000      5.4654000000     -4.1273000000 
  Si31         -4.4563000000     -1.2200000000      0.7391000000 
  Si32          2.6052000000      3.2741000000      0.3412000000 
  C33          -3.9145000000     -3.1936000000     -3.4770000000 
  C34          -4.1969000000     -3.9514000000     -2.4112000000 
  C35          -4.3948000000     -3.3238000000     -1.0882000000 
  C36          -4.2595000000     -1.9950000000     -0.9417000000 
  C37          -3.9926000000     -1.1563000000     -2.1360000000 
  C38          -3.8217000000     -1.7268000000     -3.3350000000 
  H39          -3.7639000000     -3.6519000000     -4.4458000000 
  H40          -4.2727000000     -5.0262000000     -2.5135000000 
  H41          -4.6222000000     -3.9546000000     -0.2376000000 
  H42          -3.9468000000     -0.0794000000     -2.0539000000 
  H43          -3.6239000000     -1.1138000000     -4.2047000000 
  C44          -1.5618000000     -3.1168000000      3.8970000000 
  C45          -2.3793000000     -2.1168000000      4.2454000000 
  C46          -3.2781000000     -1.5115000000      3.2410000000 
  C47          -3.2815000000     -1.9628000000      1.9754000000 
  C48          -2.3377000000     -3.0397000000      1.5851000000 
  C49          -1.5353000000     -3.5957000000      2.5005000000 
  H50          -0.9077000000     -3.5660000000      4.6328000000 
  H51          -2.3918000000     -1.7560000000      5.2656000000 
  H52          -3.9459000000     -0.7154000000      3.5469000000 
  H53          -2.2763000000     -3.3777000000      0.5617000000 
  H54          -0.8498000000     -4.3831000000      2.2151000000 
  C55          -8.9124000000     -2.0095000000      1.9441000000 
  C56          -8.6259000000     -1.3099000000      0.8401000000 
  C57          -7.2183000000     -1.0644000000      0.4640000000 
  C58          -6.2204000000     -1.5291000000      1.2346000000 
  C59          -6.5441000000     -2.3187000000      2.4481000000 
  C60          -7.8207000000     -2.5420000000      2.7843000000 
  H61          -9.9429000000     -2.1907000000      2.2210000000 
  H62          -9.4238000000     -0.9220000000      0.2203000000 
  H63          -7.0064000000     -0.4993000000     -0.4356000000 
  H64          -5.7576000000     -2.7298000000      3.0652000000 
  H65          -8.0564000000     -3.1193000000      3.6690000000 
  C66           5.5078000000      0.0374000000     -1.3963000000 
  C67           5.8534000000      0.7306000000     -0.3053000000 
  C68           4.9346000000      1.7476000000      0.2467000000 
  C69           3.7385000000      1.9621000000     -0.3271000000 
  C70           3.3682000000      1.2008000000     -1.5409000000 
  C71           4.2075000000      0.2897000000     -2.0485000000 
  H72           6.1771000000     -0.7108000000     -1.8005000000 
  H73           6.8045000000      0.5457000000      0.1771000000 
  H74           5.2396000000      2.3123000000      1.1192000000 
  H75           2.4268000000      1.3894000000     -2.0319000000 
  H76           3.9370000000     -0.2626000000     -2.9388000000 
  C77           1.3555000000      2.3268000000      4.7598000000 
  C78           0.9167000000      3.4415000000      4.1636000000 
  C79           1.3308000000      3.7528000000      2.7798000000 
  C80           2.1656000000      2.9306000000      2.1202000000 
  C81           2.6360000000      1.6921000000      2.7833000000 
  C82           2.2538000000      1.4073000000      4.0339000000 
  H83           1.0489000000      2.0938000000      5.7712000000 
  H84           0.2515000000      4.1135000000      4.6900000000 
  H85           0.9339000000      4.6395000000      2.3009000000 
  H86           3.2719000000      1.0011000000      2.2548000000 
  H87           2.5962000000      0.4999000000      4.5135000000 
  C88           5.0762000000      7.2396000000     -0.0939000000 
  C89           4.4900000000      6.9541000000      1.0742000000 
  C90           3.7067000000      5.7100000000      1.2271000000 
  C91           3.5601000000      4.8687000000      0.1884000000 
  C92           4.2358000000      5.1809000000     -1.0958000000 
  C93           4.9485000000      6.3058000000     -1.2297000000 
  H94           5.6512000000      8.1496000000     -0.2061000000 
  H95           4.5892000000      7.6330000000      1.9113000000 
  H96           3.2669000000      5.4999000000      2.1897000000 
  H97           4.1699000000      4.4921000000     -1.9286000000 
  H98           5.4412000000      6.5286000000     -2.1673000000 
  O99          -1.9278000000      0.1565000000     -0.1363000000 
  O100         -0.1422000000      1.8120000000      0.9309000000 
  P101         -0.4588000000      0.2509000000      0.5671000000 
  O102         -0.3631000000     -0.4756000000      1.8714000000 
  N103          3.3142000000     -2.7456000000     -0.7568000000 
  H104          2.6066000000     -2.2856000000     -1.3736000000 
  C105          3.4537000000     -2.2229000000      0.4958000000 
  C106          7.1721000000     -1.9321000000      2.5849000000 
  C107          6.0041000000     -1.3975000000      3.1317000000 
  C108          4.7958000000     -1.5336000000      2.4578000000 
  C109          4.7308000000     -2.2130000000      1.2269000000 
  C110          5.9143000000     -2.7420000000      0.6816000000 
  C111          7.1216000000     -2.5986000000      1.3590000000 
  H112          8.1192000000     -1.8164000000      3.1031000000 
  H113          6.0355000000     -0.8655000000      4.0776000000 
  H114          3.8919000000     -1.1185000000      2.8819000000 
  H115          5.9100000000     -3.2136000000     -0.2929000000 
  H116          8.0299000000     -2.9964000000      0.9173000000 
  H117          2.8588000000     -1.3167000000      0.5868000000 
  N118          0.5760000000     -0.1910000000     -0.6194000000 
  S119          0.2240000000     -1.0955000000     -1.8702000000 
  O120         -0.8603000000     -2.0720000000     -1.6980000000 
  O121          1.4982000000     -1.6021000000     -2.4512000000 
  C122         -0.3766000000      0.0344000000     -3.2457000000 
  F123          0.5709000000      0.9064000000     -3.6032000000 
  F124         -0.6944000000     -0.7147000000     -4.3072000000 
  F125         -1.4600000000      0.7248000000     -2.8684000000 
  C126          1.9549000000     -3.2393000000      1.7460000000 
  C127          2.6369000000     -4.1956000000      2.5508000000 
  C128          2.6203000000     -3.7411000000      3.8613000000 
  C129          1.8672000000     -2.5479000000      3.8686000000 
  N130          1.4601000000     -2.2699000000      2.6248000000 
  H131          1.3958000000     -3.4643000000      0.8467000000 
  H132          3.1175000000     -5.0794000000      2.1598000000 
  H133          3.0873000000     -4.1942000000      4.7240000000 
  H134          1.6121000000     -1.8994000000      4.6962000000 
  H135          0.7836000000     -1.5183000000      2.3464000000 
  S136          3.6866000000     -4.3365000000     -1.2886000000 
  O137          4.6658000000     -4.2538000000     -2.3723000000 
  O138          3.9600000000     -5.1520000000     -0.1048000000 
  C139         -0.3401000000     -5.4011000000     -3.0075000000 
  C140         -0.1447000000     -5.0343000000     -1.6730000000 
  N141          1.0597000000     -4.7389000000     -1.1765000000 
  C142          2.0851000000     -4.7844000000     -2.0177000000 
  C143          2.0225000000     -5.1284000000     -3.3619000000 
  C144          0.7585000000     -5.4536000000     -3.8608000000 
  H145         -1.3397000000     -5.6234000000     -3.3647000000 
  H146         -0.9815000000     -4.9602000000     -0.9863000000 
  H147          2.9137000000     -5.1244000000     -3.9770000000 
  H148          0.6380000000     -5.7275000000     -4.9041000000 
   
  principal moments of inertia:
        amu*angstrom^2:    20613.16621    24762.22533    32072.57749
                g*cm^2: 3.42289635E-36 4.11186374E-36 5.32577613E-36
   
  rotational constants:
               cm^(-1):      0.00081781      0.00068078      0.00052561
                   GHz:      0.02451729      0.02040927      0.01575736
   
  Molecular weight:    1308.28 amu
   
  Stoichiometry: Si2C73PN4H56S2O7F3
[running at reduced cpu priority]
  Molecular Point Group: C1      
  Point Group used: C1
  
  nuclear repulsion energy.......   20908.324230844 hartrees
 
 Non-default options chosen:
   SCF calculation type: DFT(m06-2x)                 
   DFT=M06-2X
   Solvation energy will be computed using PBF
     -solute cavity energy will not be included
     -surface area terms will not be included
   Highest accuracy cutoffs used in SCF
   Solvent: other                                                           
   Internal dielectric constant:    1.000
   Continuum dielectric constant:   2.380
   Solvent probe molecule radius:   2.760
  
 Temporary integer options set:
     73=  2
  
  atom       vdw   vdw2    cov     mass  grid  daf  charge   basis
  C1        1.949  1.900  0.770   12.000    Y    Y      Y    6-31g**
  C2        1.949  1.900  0.770   12.000    Y    Y      Y    6-31g**
  C3        1.949  1.900  0.770   12.000    Y    Y      Y    6-31g**
  C4        1.949  1.900  0.770   12.000    Y    Y      Y    6-31g**
  H5        1.597  1.150  0.320    1.008    Y    Y      Y    6-31g**
  C6        1.949  1.900  0.770   12.000    Y    Y      Y    6-31g**
  C7        1.949  1.900  0.770   12.000    Y    Y      Y    6-31g**
  C8        1.949  1.900  0.770   12.000    Y    Y      Y    6-31g**
  C9        1.949  1.900  0.770   12.000    Y    Y      Y    6-31g**
  H10       1.597  1.150  0.320    1.008    Y    Y      Y    6-31g**
  C11       1.949  1.900  0.770   12.000    Y    Y      Y    6-31g**
  C12       1.949  1.900  0.770   12.000    Y    Y      Y    6-31g**
  C13       1.949  1.900  0.770   12.000    Y    Y      Y    6-31g**
  C14       1.949  1.900  0.770   12.000    Y    Y      Y    6-31g**
  C15       1.949  1.900  0.770   12.000    Y    Y      Y    6-31g**
  C16       1.949  1.900  0.770   12.000    Y    Y      Y    6-31g**
  H17       1.597  1.150  0.320    1.008    Y    Y      Y    6-31g**
  H18       1.597  1.150  0.320    1.008    Y    Y      Y    6-31g**
  H19       1.597  1.150  0.320    1.008    Y    Y      Y    6-31g**
  H20       1.597  1.150  0.320    1.008    Y    Y      Y    6-31g**
  C21       1.949  1.900  0.770   12.000    Y    Y      Y    6-31g**
  C22       1.949  1.900  0.770   12.000    Y    Y      Y    6-31g**
  C23       1.949  1.900  0.770   12.000    Y    Y      Y    6-31g**
  C24       1.949  1.900  0.770   12.000    Y    Y      Y    6-31g**
  C25       1.949  1.900  0.770   12.000    Y    Y      Y    6-31g**
  C26       1.949  1.900  0.770   12.000    Y    Y      Y    6-31g**
  H27       1.597  1.150  0.320    1.008    Y    Y      Y    6-31g**
  H28       1.597  1.150  0.320    1.008    Y    Y      Y    6-31g**
  H29       1.597  1.150  0.320    1.008    Y    Y      Y    6-31g**
  H30       1.597  1.150  0.320    1.008    Y    Y      Y    6-31g**
  Si31      2.217  2.147  1.110   27.977    Y    Y      Y    6-31g**
  Si32      2.217  2.147  1.110   27.977    Y    Y      Y    6-31g**
  C33       1.949  1.900  0.770   12.000    Y    Y      Y    6-31g**
  C34       1.949  1.900  0.770   12.000    Y    Y      Y    6-31g**
  C35       1.949  1.900  0.770   12.000    Y    Y      Y    6-31g**
  C36       1.949  1.900  0.770   12.000    Y    Y      Y    6-31g**
  C37       1.949  1.900  0.770   12.000    Y    Y      Y    6-31g**
  C38       1.949  1.900  0.770   12.000    Y    Y      Y    6-31g**
  H39       1.597  1.150  0.320    1.008    Y    Y      Y    6-31g**
  H40       1.597  1.150  0.320    1.008    Y    Y      Y    6-31g**
  H41       1.597  1.150  0.320    1.008    Y    Y      Y    6-31g**
  H42       1.597  1.150  0.320    1.008    Y    Y      Y    6-31g**
  H43       1.597  1.150  0.320    1.008    Y    Y      Y    6-31g**
  C44       1.949  1.900  0.770   12.000    Y    Y      Y    6-31g**
  C45       1.949  1.900  0.770   12.000    Y    Y      Y    6-31g**
  C46       1.949  1.900  0.770   12.000    Y    Y      Y    6-31g**
  C47       1.949  1.900  0.770   12.000    Y    Y      Y    6-31g**
  C48       1.949  1.900  0.770   12.000    Y    Y      Y    6-31g**
  C49       1.949  1.900  0.770   12.000    Y    Y      Y    6-31g**
  H50       1.597  1.150  0.320    1.008    Y    Y      Y    6-31g**
  H51       1.597  1.150  0.320    1.008    Y    Y      Y    6-31g**
  H52       1.597  1.150  0.320    1.008    Y    Y      Y    6-31g**
  H53       1.597  1.150  0.320    1.008    Y    Y      Y    6-31g**
  H54       1.597  1.150  0.320    1.008    Y    Y      Y    6-31g**
  C55       1.949  1.900  0.770   12.000    Y    Y      Y    6-31g**
  C56       1.949  1.900  0.770   12.000    Y    Y      Y    6-31g**
  C57       1.949  1.900  0.770   12.000    Y    Y      Y    6-31g**
  C58       1.949  1.900  0.770   12.000    Y    Y      Y    6-31g**
  C59       1.949  1.900  0.770   12.000    Y    Y      Y    6-31g**
  C60       1.949  1.900  0.770   12.000    Y    Y      Y    6-31g**
  H61       1.597  1.150  0.320    1.008    Y    Y      Y    6-31g**
  H62       1.597  1.150  0.320    1.008    Y    Y      Y    6-31g**
  H63       1.597  1.150  0.320    1.008    Y    Y      Y    6-31g**
  H64       1.597  1.150  0.320    1.008    Y    Y      Y    6-31g**
  H65       1.597  1.150  0.320    1.008    Y    Y      Y    6-31g**
  C66       1.949  1.900  0.770   12.000    Y    Y      Y    6-31g**
  C67       1.949  1.900  0.770   12.000    Y    Y      Y    6-31g**
  C68       1.949  1.900  0.770   12.000    Y    Y      Y    6-31g**
  C69       1.949  1.900  0.770   12.000    Y    Y      Y    6-31g**
  C70       1.949  1.900  0.770   12.000    Y    Y      Y    6-31g**
  C71       1.949  1.900  0.770   12.000    Y    Y      Y    6-31g**
  H72       1.597  1.150  0.320    1.008    Y    Y      Y    6-31g**
  H73       1.597  1.150  0.320    1.008    Y    Y      Y    6-31g**
  H74       1.597  1.150  0.320    1.008    Y    Y      Y    6-31g**
  H75       1.597  1.150  0.320    1.008    Y    Y      Y    6-31g**
  H76       1.597  1.150  0.320    1.008    Y    Y      Y    6-31g**
  C77       1.949  1.900  0.770   12.000    Y    Y      Y    6-31g**
  C78       1.949  1.900  0.770   12.000    Y    Y      Y    6-31g**
  C79       1.949  1.900  0.770   12.000    Y    Y      Y    6-31g**
  C80       1.949  1.900  0.770   12.000    Y    Y      Y    6-31g**
  C81       1.949  1.900  0.770   12.000    Y    Y      Y    6-31g**
  C82       1.949  1.900  0.770   12.000    Y    Y      Y    6-31g**
  H83       1.597  1.150  0.320    1.008    Y    Y      Y    6-31g**
  H84       1.597  1.150  0.320    1.008    Y    Y      Y    6-31g**
  H85       1.597  1.150  0.320    1.008    Y    Y      Y    6-31g**
  H86       1.597  1.150  0.320    1.008    Y    Y      Y    6-31g**
  H87       1.597  1.150  0.320    1.008    Y    Y      Y    6-31g**
  C88       1.949  1.900  0.770   12.000    Y    Y      Y    6-31g**
  C89       1.949  1.900  0.770   12.000    Y    Y      Y    6-31g**
  C90       1.949  1.900  0.770   12.000    Y    Y      Y    6-31g**
  C91       1.949  1.900  0.770   12.000    Y    Y      Y    6-31g**
  C92       1.949  1.900  0.770   12.000    Y    Y      Y    6-31g**
  C93       1.949  1.900  0.770   12.000    Y    Y      Y    6-31g**
  H94       1.597  1.150  0.320    1.008    Y    Y      Y    6-31g**
  H95       1.597  1.150  0.320    1.008    Y    Y      Y    6-31g**
  H96       1.597  1.150  0.320    1.008    Y    Y      Y    6-31g**
  H97       1.597  1.150  0.320    1.008    Y    Y      Y    6-31g**
  H98       1.597  1.150  0.320    1.008    Y    Y      Y    6-31g**
  O99       1.702  1.600  0.730   15.995    Y    Y      Y    6-31g**
  O100      1.702  1.600  0.730   15.995    Y    Y      Y    6-31g**
  P101      2.147  2.074  1.060   30.974    Y    Y      Y    6-31g**
  O102      1.702  1.600  0.730   15.995    Y    Y      Y    6-31g**
  N103      1.831  1.600  0.750   14.003    Y    Y      Y    6-31g**
  H104      1.597  1.150  0.320    1.008    Y    Y      Y    6-31g**
  C105      1.949  1.900  0.770   12.000    Y    Y      Y    6-31g**
  C106      1.949  1.900  0.770   12.000    Y    Y      Y    6-31g**
  C107      1.949  1.900  0.770   12.000    Y    Y      Y    6-31g**
  C108      1.949  1.900  0.770   12.000    Y    Y      Y    6-31g**
  C109      1.949  1.900  0.770   12.000    Y    Y      Y    6-31g**
  C110      1.949  1.900  0.770   12.000    Y    Y      Y    6-31g**
  C111      1.949  1.900  0.770   12.000    Y    Y      Y    6-31g**
  H112      1.597  1.150  0.320    1.008    Y    Y      Y    6-31g**
  H113      1.597  1.150  0.320    1.008    Y    Y      Y    6-31g**
  H114      1.597  1.150  0.320    1.008    Y    Y      Y    6-31g**
  H115      1.597  1.150  0.320    1.008    Y    Y      Y    6-31g**
  H116      1.597  1.150  0.320    1.008    Y    Y      Y    6-31g**
  H117      1.597  1.150  0.320    1.008    Y    Y      Y    6-31g**
  N118      1.831  1.600  0.750   14.003    Y    Y      Y    6-31g**
  S119      2.070  1.900  1.020   31.972    Y    Y      Y    6-31g**
  O120      1.702  1.600  0.730   15.995    Y    Y      Y    6-31g**
  O121      1.702  1.600  0.730   15.995    Y    Y      Y    6-31g**
  C122      1.949  1.900  0.770   12.000    Y    Y      Y    6-31g**
  F123      1.736  1.682  0.720   18.998    Y    Y      Y    6-31g**
  F124      1.736  1.682  0.720   18.998    Y    Y      Y    6-31g**
  F125      1.736  1.682  0.720   18.998    Y    Y      Y    6-31g**
  C126      1.949  1.900  0.770   12.000    Y    Y      Y    6-31g**
  C127      1.949  1.900  0.770   12.000    Y    Y      Y    6-31g**
  C128      1.949  1.900  0.770   12.000    Y    Y      Y    6-31g**
  C129      1.949  1.900  0.770   12.000    Y    Y      Y    6-31g**
  N130      1.831  1.600  0.750   14.003    Y    Y      Y    6-31g**
  H131      1.597  1.150  0.320    1.008    Y    Y      Y    6-31g**
  H132      1.597  1.150  0.320    1.008    Y    Y      Y    6-31g**
  H133      1.597  1.150  0.320    1.008    Y    Y      Y    6-31g**
  H134      1.597  1.150  0.320    1.008    Y    Y      Y    6-31g**
  H135      1.597  1.150  0.320    1.008    Y    Y      Y    6-31g**
  S136      2.070  1.900  1.020   31.972    Y    Y      Y    6-31g**
  O137      1.702  1.600  0.730   15.995    Y    Y      Y    6-31g**
  O138      1.702  1.600  0.730   15.995    Y    Y      Y    6-31g**
  C139      1.949  1.900  0.770   12.000    Y    Y      Y    6-31g**
  C140      1.949  1.900  0.770   12.000    Y    Y      Y    6-31g**
  N141      1.831  1.600  0.750   14.003    Y    Y      Y    6-31g**
  C142      1.949  1.900  0.770   12.000    Y    Y      Y    6-31g**
  C143      1.949  1.900  0.770   12.000    Y    Y      Y    6-31g**
  C144      1.949  1.900  0.770   12.000    Y    Y      Y    6-31g**
  H145      1.597  1.150  0.320    1.008    Y    Y      Y    6-31g**
  H146      1.597  1.150  0.320    1.008    Y    Y      Y    6-31g**
  H147      1.597  1.150  0.320    1.008    Y    Y      Y    6-31g**
  H148      1.597  1.150  0.320    1.008    Y    Y      Y    6-31g**
  
  Peak memory usage:    768 Mb
  
  end of program pre
   
 Time(pre)  user:        0.9  user+sys:        0.9  wallclock:        1.5
  
  start of program onee
  
  smallest eigenvalue of S:    2.205E-04
  number of canonical orbitals.....         1673
  Peak memory usage:    900 Mb
  
  end of program onee
   
 Time(onee)  user:       18.1  user+sys:       18.1  wallclock:       22.0
  
  start of program hfig
  
  initial wavefunction generated automatically from atomic wavefunctions
 
  Irreducible     Total no   No of occupied orbitals 
  representation  orbitals   Shell_1  Shell_2    ...
  No Symm         1673        340
  ------------------------
  Orbital occupation/shell    1.000
 
  Peak memory usage:    833 Mb
  
  end of program hfig
   
 Time(hfig)  user:       28.5  user+sys:       28.5  wallclock:       30.4
  
  start of program probe
  
  Peak memory usage:    826 Mb
  
  end of program probe
   
 Time(probe)  user:       18.8  user+sys:       18.8  wallclock:       19.1
  
  start of program grid
  
   grid     grid set  grid #  grid sym
  ------    --------  ------  --------
  coarse        0        0        1
  medium        2        1        1
  fine          0        0        1
  ultrafine     4        2        1
  charge       -1        3        1
  gradient      4        2        1
  density       0        0        1
  DFT-fine    -13        4        1
  DFT-med.    -13        4        1
  DFT-grad    -13        4        1
  DFT-der2      0        0        1
  DFT-cphf      0        0        1
  LMP2-enrg     4        2        1
  LMP2-grad     2        1        1
  DFT-cphf2     0        0        1
  PBF-dens      0        0        1
  plotting      0        0        1
  Rel-grad    -17        0        1
  
  number of gridpoints: 
     atom        C1       C2       C3       C4       H5       C6       C7
  grid # 1      100       94      101       97      110       93      100
  grid # 2      358      337      359      359      426      335      358
  grid # 3       13       30       14       20      175       23       12
  grid # 4    48124    48124    48124    48124    48426    48124    48124
   
  number of gridpoints: 
     atom        C8       C9      H10      C11      C12      C13      C14
  grid # 1       97      100      111      102      102       98       94
  grid # 2      358      354      421      358      366      339      338
  grid # 3       14        6      162       29       48       48       48
  grid # 4    48124    48124    48426    48124    48124    48124    48124
   
  number of gridpoints: 
     atom       C15      C16      H17      H18      H19      H20      C21
  grid # 1       95       97      118      118      118      111      101
  grid # 2      338      338      442      450      449      434      365
  grid # 3       40       31      361      417      409      238       31
  grid # 4    48124    48124    48426    48426    48426    48426    48124
   
  number of gridpoints: 
     atom       C22      C23      C24      C25      C26      H27      H28
  grid # 1      100       96       94       94       95      111      118
  grid # 2      357      336      336      335      336      434      451
  grid # 3        7       22       35       43       37      233      416
  grid # 4    48124    48124    48124    48124    48124    48426    48426
   
  number of gridpoints: 
     atom       H29      H30     Si31     Si32      C33      C34      C35
  grid # 1      118      118      470      475       93       93       92
  grid # 2      453      445      470      475      335      333      335
  grid # 3      423      355        6       10       32       33       21
  grid # 4    48426    48426    38542    38542    48124    48124    48124
   
  number of gridpoints: 
     atom       C36      C37      C38      H39      H40      H41      H42
  grid # 1      101       96       93      116      115      113      109
  grid # 2      358      334      334      449      447      434      424
  grid # 3       11       18       27      363      342      257      154
  grid # 4    48124    48124    48124    48426    48426    48426    48426
   
  number of gridpoints: 
     atom       H43      C44      C45      C46      C47      C48      C49
  grid # 1      114       94       92       92      100       96       94
  grid # 2      443      331      334      332      355      334      331
  grid # 3      308       27       22        9        9       19       27
  grid # 4    48426    48124    48124    48124    48124    48124    48124
   
  number of gridpoints: 
     atom       H50      H51      H52      H53      H54      C55      C56
  grid # 1      115      118      112      107      114       94       93
  grid # 2      441      450      438      412      432      336      335
  grid # 3      301      387      261       97      253       46       39
  grid # 4    48426    48426    48426    48426    48426    48124    48124
   
  number of gridpoints: 
     atom       C57      C58      C59      C60      H61      H62      H63
  grid # 1       92      100       96       94      118      118      112
  grid # 2      335      358      339      336      453      452      438
  grid # 3       21       13       31       45      424      414      263
  grid # 4    48124    48124    48124    48124    48426    48426    48426
   
  number of gridpoints: 
     atom       H64      H65      C66      C67      C68      C69      C70
  grid # 1      111      118       93       93       92      101       94
  grid # 2      433      453      333      333      335      359      334
  grid # 3      233      423       26       24       17        8       13
  grid # 4    48426    48426    48124    48124    48124    48124    48124
   
  number of gridpoints: 
     atom       C71      H72      H73      H74      H75      H76      C77
  grid # 1       93      113      116      112      107      115       93
  grid # 2      331      443      441      437      412      437      335
  grid # 3       20      301      308      256       98      278       38
  grid # 4    48124    48426    48426    48426    48426    48426    48124
   
  number of gridpoints: 
     atom       C78      C79      C80      C81      C82      H83      H84
  grid # 1       93       92      101       95       93      118      118
  grid # 2      335      333      357      333      335      451      452
  grid # 3       32       11       13       23       33      398      404
  grid # 4    48124    48124    48124    48124    48124    48426    48426
   
  number of gridpoints: 
     atom       H85      H86      H87      C88      C89      C90      C91
  grid # 1      112      106      111       94       94       93      100
  grid # 2      429      413      432      336      336      338      363
  grid # 3      226       84      198       49       47       34       18
  grid # 4    48426    48426    48426    48124    48124    48124    48124
   
  number of gridpoints: 
     atom       C92      C93      H94      H95      H96      H97      H98
  grid # 1       95       94      118      118      110      112      118
  grid # 2      336      336      453      452      431      427      452
  grid # 3       26       42      424      419      229      217      420
  grid # 4    48124    48124    48426    48426    48426    48426    48426
   
  number of gridpoints: 
     atom       O99     O100     P101     O102     N103     H104     C105
  grid # 1      112      112      447      116      100       98       93
  grid # 2      429      439      447      459      349      393      326
  grid # 3       20       57        7       75       10       47        6
  grid # 4    47716    47716    38640    47716    47928    48426    48124
   
  number of gridpoints: 
     atom      C106     C107     C108     C109     C110     C111     H112
  grid # 1       96       95       95      100       95       96      117
  grid # 2      330      330      333      359      333      331      450
  grid # 3       32       28       20       13       20       28      410
  grid # 4    48124    48124    48124    48124    48124    48124    48426
   
  number of gridpoints: 
     atom      H113     H114     H115     H116     H117     N118     S119
  grid # 1      117      105      110      117      101      109      433
  grid # 2      445      402      422      450      409      406      433
  grid # 3      362       58      147      400       72       21        9
  grid # 4    48426    48426    48426    48426    48426    47928    48492
   
  number of gridpoints: 
     atom      O120     O121     C122     F123     F124     F125     C126
  grid # 1      117      116       91      519      529      509       92
  grid # 2      475      455      323      519      529      509      325
  grid # 3       66       77        7      158      225       66        6
  grid # 4    47716    47716    48124    47062    47062    47062    48124
   
  number of gridpoints: 
     atom      C127     C128     C129     N130     H131     H132     H133
  grid # 1       93       93       95       96      106      113      117
  grid # 2      328      329      324      341      410      442      459
  grid # 3       13       16        7        7       82      299      437
  grid # 4    48124    48124    48124    47928    48426    48426    48426
   
  number of gridpoints: 
     atom      H134     H135     S136     O137     O138     C139     C140
  grid # 1      112       99      447      122      118       96       96
  grid # 2      436      400      447      493      485      332      334
  grid # 3      245       83       12      223      192       37       30
  grid # 4    48426    48426    48492    47716    47716    48124    48124
   
  number of gridpoints: 
     atom      N141     C142     C143     C144     H145     H146     H147
  grid # 1      110       98       96       96      113      111      114
  grid # 2      407      357      329      332      437      428      444
  grid # 3       58       27       37       41      285      216      337
  grid # 4    47928    48124    48124    48124    48426    48426    48426
   
  number of gridpoints: 
     atom      H148    total
  grid # 1      118    18364
  grid # 2      453    57811
  grid # 3      425    18976
  grid # 4    48426  7104526
   
  Peak memory usage:    795 Mb
  
  end of program grid
   
 Time(grid)  user:     1229.3  user+sys:     1229.3  wallclock:     1254.2
  
  start of program rwr
  
  Peak memory usage:    814 Mb
  
  end of program rwr
   
 Time(rwr)  user:       66.3  user+sys:       66.3  wallclock:       73.3
  
  start of program scf
  
 number of electrons..........        680
 number of alpha electrons....        340
 number of beta electrons.....        340
 number of orbitals, total....       1673
 number of doubly-occ'd orbs..        340
 number of open shell orbs....          0
 number of occupied orbitals..        340
 number of virtual orbitals...       1333
 number of hamiltonians.......          1
 number of shells.............          1
 SCF type: DFT=M06-2X
 Energy computed with NOPS off.
  
       i  u  d  i  g                   
       t  p  i  c  r                                 RMS    maximum
       e  d  i  u  i                       energy  density   DIIS  
       r  t  s  t  d       total energy    change  change    error 
  
etot    1  N  N  1  U   -5562.77611367150           3.5E-03  1.0E-01
etot    2  N  Y  1  U   -5536.91272124465 -2.6E+01  1.7E-02  1.2E-01
etot    3  N  Y  1  U   -5314.53158531995 -2.2E+02  1.6E-02  3.9E-01
etot    4  N  Y  1  U   -5566.47390145688  2.5E+02  3.5E-03  9.3E-02
etot    5  N  Y  1  U   -5567.13220037479  6.6E-01  3.0E-03  6.0E-02
etot    6  N  Y  1  U   -5564.66991092082 -2.5E+00  1.6E-03  7.8E-02
etot    7  N  Y  1  U   -5575.26737009324  1.1E+01  5.2E-04  2.1E-02
etot    8  N  Y  1  U   -5575.49502195343  2.3E-01  1.8E-04  1.1E-02
etot    9  N  Y  1  U   -5575.54505934577  5.0E-02  5.9E-05  2.2E-03
etot   10  N  Y  1  U   -5575.55091738763  5.9E-03  2.3E-05  8.7E-04
etot   11  N  Y  1  U   -5575.55156882751  6.5E-04  1.1E-05  7.1E-04
etot   12  N  Y  1  U   -5575.55177536960  2.1E-04  5.8E-06  1.8E-04
etot   13  N  N  1  U   -5575.55182126051  4.6E-05  0.0E+00  0.0E+00
  
  
 Energy components, in hartrees:
   (A)  Nuclear repulsion............   20908.32423084409
   (E)  Total one-electron terms.....  -49344.19923633195
   (F)    Electron-nuclear...........  -54880.17803034420
   (H)    Kinetic....................    5535.97879401224
   (I)  Total two-electron terms.....   22860.32318422735
   (J)    Coulomb....................   23511.56421759913
   (K)    Exchange+Correlation.......    -651.24103337179
   (L)  Electronic energy............  -26483.87605210461  (E+I)
   (M)  -V/T.........................       2.00714833433  (-(A+F+I)/H)
   (N)  Total energy.................   -5575.55182126051  (A+L)
   (O)  Gas phase energy.............   -5575.55182126051
  
 SCFE: SCF energy: DFT(m06-2x)     -5575.55182126051 hartrees   iterations:  13
  
 
 HOMO energy:    -0.25309
 LUMO energy:    -0.07080
 
  Orbital energies (hartrees): 
   -90.17690   -90.15389   -78.20791   -67.00870   -67.00454   -25.29054
   -25.28946   -25.28854   -19.69010   -19.68581   -19.65599   -19.65487
   -19.63269   -19.62553   -19.59992   -14.81757   -14.81248   -14.79396
   -14.74485   -10.80583   -10.66557   -10.63456   -10.62447   -10.61986
   -10.60932   -10.60890   -10.59321   -10.58974   -10.58930   -10.58339
   -10.58295   -10.57091   -10.57062   -10.57002   -10.56969   -10.56932
   -10.56913   -10.56645   -10.56614   -10.56529   -10.56203   -10.56170
   -10.56157   -10.55981   -10.55662   -10.55648   -10.55315   -10.55312
   -10.55263   -10.55243   -10.55200   -10.55114   -10.55111   -10.55044
   -10.55015   -10.54924   -10.54879   -10.54869   -10.54854   -10.54843
   -10.54811   -10.54762   -10.54755   -10.54660   -10.54641   -10.54557
   -10.54537   -10.54503   -10.54472   -10.54406   -10.54344   -10.54289
   -10.54286   -10.54272   -10.54144   -10.54123   -10.54118   -10.53986
   -10.53966   -10.53861   -10.53790   -10.53694   -10.53675   -10.53595
   -10.53570   -10.53488   -10.53365   -10.53101   -10.53074   -10.52550
   -10.52497   -10.52425    -8.48722    -8.46246    -6.98739    -6.40954
    -6.40836    -6.40762    -6.38423    -6.38407    -6.38377    -5.53980
    -5.53599    -5.10599    -5.10482    -5.10316    -3.84955    -3.84928
    -3.84913    -3.84577    -3.84547    -3.84523    -1.45640    -1.36535
    -1.36414    -1.24906    -1.22993    -1.21717    -1.18609    -1.13622
    -1.10543    -1.10191    -1.08602    -1.08368    -1.06596    -0.98878
    -0.97969    -0.97444    -0.96636    -0.94356    -0.94176    -0.93962
    -0.93425    -0.93407    -0.93170    -0.92741    -0.92092    -0.91054
    -0.90159    -0.88939    -0.88567    -0.87895    -0.85603    -0.85322
    -0.84310    -0.84194    -0.83509    -0.83498    -0.83420    -0.83319
    -0.83297    -0.82910    -0.82648    -0.82604    -0.82549    -0.82457
    -0.82387    -0.82277    -0.82131    -0.82106    -0.81845    -0.81228
    -0.80036    -0.75930    -0.75618    -0.74120    -0.73026    -0.71462
    -0.70881    -0.70506    -0.70377    -0.69725    -0.68933    -0.68308
    -0.68098    -0.67962    -0.67735    -0.67689    -0.67581    -0.67376
    -0.67252    -0.67183    -0.67163    -0.66685    -0.66336    -0.66290
    -0.66268    -0.65952    -0.65879    -0.65533    -0.65415    -0.65401
    -0.65019    -0.64075    -0.63661    -0.62571    -0.61535    -0.61063
    -0.60678    -0.60160    -0.59918    -0.58391    -0.58185    -0.58117
    -0.57956    -0.57640    -0.57549    -0.57420    -0.57323    -0.57300
    -0.57027    -0.56290    -0.55845    -0.55705    -0.55116    -0.55083
    -0.54575    -0.54480    -0.53809    -0.53637    -0.53500    -0.53249
    -0.52968    -0.52669    -0.52362    -0.52062    -0.52018    -0.51745
    -0.51575    -0.51531    -0.51496    -0.51307    -0.51228    -0.51033
    -0.50891    -0.50727    -0.50413    -0.50040    -0.49971    -0.49965
    -0.49889    -0.49807    -0.49759    -0.49612    -0.49510    -0.49479
    -0.49312    -0.49244    -0.49109    -0.49071    -0.49058    -0.48759
    -0.48376    -0.48115    -0.48006    -0.48005    -0.47546    -0.47365
    -0.47237    -0.47065    -0.46964    -0.46462    -0.46385    -0.46292
    -0.45866    -0.45139    -0.45104    -0.44994    -0.44757    -0.44691
    -0.44435    -0.44280    -0.43472    -0.43272    -0.43147    -0.42788
    -0.42540    -0.42484    -0.42254    -0.42207    -0.42049    -0.41919
    -0.41618    -0.41458    -0.41292    -0.41200    -0.40757    -0.40425
    -0.40138    -0.40092    -0.39744    -0.39580    -0.39334    -0.39159
    -0.38986    -0.38934    -0.38724    -0.38455    -0.38415    -0.38313
    -0.38133    -0.38059    -0.37802    -0.37728    -0.37533    -0.36667
    -0.36401    -0.35807    -0.35421    -0.35152    -0.34843    -0.34565
    -0.34116    -0.34108    -0.33813    -0.33640    -0.33501    -0.33173
    -0.32783    -0.32560    -0.32366    -0.31969    -0.31216    -0.30277
    -0.30232    -0.29947    -0.29853    -0.29662    -0.29383    -0.29299
    -0.28977    -0.28836    -0.28757    -0.28670    -0.28499    -0.28169
    -0.27952    -0.27529    -0.27235    -0.25309    -0.07080    -0.02354
    -0.01806    -0.00171    -0.00037     0.00989     0.01307     0.01608
     0.02129     0.02395
 
  Peak memory usage:   1028 Mb
  
  end of program scf
   
 Time(scf)  user:    34457.9  user+sys:    34457.9  wallclock:    36688.0
  
  start of program ch
  
  gridpoints used for charge fit        16367
    out of a possible maximum of        18976
  
   Electrostatic potential fitting constrained to reproduce
     total charge:                yes
     dipole moment:               no 
     traceless quadrupole moment: no 
     traceless octapole moment:   no 
  
  Atomic charges from electrostatic potential: 
   
 Atom       C1           C2           C3           C4           H5      
 Charge   -0.12609     -0.40534      0.16861     -0.00182      0.18776
   
 Atom       C6           C7           C8           C9           H10     
 Charge   -0.33886      0.02742      0.01337      0.07886      0.18455
   
 Atom       C11          C12          C13          C14          C15     
 Charge    0.10993      0.21011     -0.23125     -0.11713     -0.14198
   
 Atom       C16          H17          H18          H19          H20     
 Charge   -0.17520      0.14694      0.13087      0.13893      0.12401
   
 Atom       C21          C22          C23          C24          C25     
 Charge    0.15396      0.05134     -0.17890     -0.14586     -0.11980
   
 Atom       C26          H27          H28          H29          H30     
 Charge   -0.20378      0.13473      0.14144      0.13371      0.13990
   
 Atom       Si31         Si32         C33          C34          C35     
 Charge   -0.26148      0.15022     -0.15667     -0.10496     -0.17750
   
 Atom       C36          C37          C38          H39          H40     
 Charge    0.11933     -0.16445     -0.11071      0.13258      0.11067
   
 Atom       H41          H42          H43          C44          C45     
 Charge    0.12542      0.12746      0.12020     -0.18733     -0.09583
   
 Atom       C46          C47          C48          C49          H50     
 Charge   -0.25295      0.39237     -0.45414     -0.00079      0.11774
   
 Atom       H51          H52          H53          H54          C55     
 Charge    0.12364      0.14041      0.25298      0.09342     -0.14898
   
 Atom       C56          C57          C58          C59          C60     
 Charge   -0.12432     -0.21413      0.21958     -0.21440     -0.11353
   
 Atom       H61          H62          H63          H64          H65     
 Charge    0.13327      0.12860      0.15274      0.12058      0.13078
   
 Atom       C66          C67          C68          C69          C70     
 Charge   -0.16124     -0.11771     -0.19453      0.17282     -0.21648
   
 Atom       C71          H72          H73          H74          H75     
 Charge   -0.07593      0.12725      0.11771      0.11791      0.12358
   
 Atom       H76          C77          C78          C79          C80     
 Charge    0.11457     -0.05019     -0.28410      0.08431     -0.08407
   
 Atom       C81          C82          H83          H84          H85     
 Charge   -0.04814     -0.20083      0.12076      0.15759      0.07591
   
 Atom       H86          H87          C88          C89          C90     
 Charge    0.05296      0.12514     -0.12400     -0.16907     -0.02293
   
 Atom       C91          C92          C93          H94          H95     
 Charge   -0.07041     -0.13206     -0.12448      0.12848      0.13644
   
 Atom       H96          H97          H98          O99          O100    
 Charge    0.05715      0.11054      0.12815     -0.18781     -0.24291
   
 Atom       P101         O102         N103         H104         C105    
 Charge    0.93351     -0.56667     -0.55735      0.50135      0.06326
   
 Atom       C106         C107         C108         C109         C110    
 Charge   -0.06360     -0.23382     -0.01381      0.21962     -0.11623
   
 Atom       C111         H112         H113         H114         H115    
 Charge   -0.20115      0.13377      0.15821      0.03826      0.16563
   
 Atom       H116         H117         N118         S119         O120    
 Charge    0.15549      0.08092     -0.55637      0.71241     -0.42332
   
 Atom       O121         C122         F123         F124         F125    
 Charge   -0.54090      0.38299     -0.12020     -0.12521     -0.10910
   
 Atom       C126         C127         C128         C129         N130    
 Charge   -0.14455     -0.19819     -0.25644     -0.07206      0.21538
   
 Atom       H131         H132         H133         H134         H135    
 Charge    0.15189      0.21369      0.18013      0.15179      0.13917
   
 Atom       S136         O137         O138         C139         C140    
 Charge    0.65953     -0.41418     -0.41522     -0.37788      0.40881
   
 Atom       N141         C142         C143         C144         H145    
 Charge   -0.53362      0.47568     -0.39405      0.11525      0.18068
   
 Atom       H146         H147         H148    
 Charge    0.02115      0.20546      0.12527
  
  sum of atomic charges:    -0.000000
   
 RMS Error   9.65E-04 hartrees
 
  Peak memory usage:    816 Mb
  
  end of program ch
   
 Time(ch)  user:       18.1  user+sys:       18.1  wallclock:       20.5
  
  start of program post
  
  Writing input files for PBF
  Peak memory usage:    759 Mb
  
  end of program post
   
 Time(post)  user:        0.7  user+sys:        0.7  wallclock:        1.0

  start of program pbf

Pbf Version 4.10

Molecular surface area:      831.29304   [A2]
Reaction field energy:       -16.25819   [kT]
  Peak memory usage: 722 Mb

  end of program pbf

 Time(pbf)  user:        6.7  user+sys:        6.7  wallclock:        6.9
  
  start of program solv
  
   number of surface charges from PBF   13368
   sum of surface charges     -0.00019
   
  nuclear repulsion energy.......   20908.324230844 hartrees
  Peak memory usage:    894 Mb
  
  end of program solv
   
 Time(solv)  user:       36.4  user+sys:       36.4  wallclock:       37.3
  
  start of program scf
  
 Energy computed with NOPS off.
  
       i  u  d  i  g                   
       t  p  i  c  r                                 RMS    maximum
       e  d  i  u  i                       energy  density   DIIS  
       r  t  s  t  d       total energy    change  change    error 
  
etot    1  N  N  1  U   -5575.58620390147           4.7E-05  6.8E-04
etot    2  N  Y  1  U   -5575.58687552683  6.7E-04  1.5E-05  5.4E-04
etot    3  N  Y  1  U   -5575.58705816394  1.8E-04  5.6E-06  3.3E-04
etot    4  N  Y  1  U   -5575.58710911994  5.1E-05  2.3E-06  1.1E-04
etot    5  N  N  1  U   -5575.58711541162  6.3E-06  0.0E+00  0.0E+00
  
  
 Energy components, in hartrees:
   (A)  Total zero-electron terms....   20911.13929080368
   (B)    Nuclear-nuclear............   20908.32423084409
   (C)    Nuclear-solvent............       2.81505995959
   (E)  Total one-electron terms.....  -49348.55728966404
   (F)    Electron-nuclear...........  -54881.73716179300
   (G)    Electron-solvent...........      -2.85126577693
   (H)    Kinetic....................    5536.03113790589
   (I)  Total two-electron terms.....   22861.83088344874
   (J)    Coulomb....................   23513.09250882936
   (K)    Exchange+Correlation.......    -651.26162538062
   (L)  Electronic energy............  -26486.72640621530  (E+I)
   (N)  Total quantum mech. energy...   -5575.58711541162  (A+L)
   (O)  Gas phase energy.............   -5575.55182126051
   (P)  Solution phase energy........   -5575.56901250295  (Q+R+S)
   (Q)    Total solute energy........   -5575.55090959427  (N-C-G)
   (R)    Total solvent energy.......      -0.01810290867  (C/2+G/2)
   (S)    Solute cavity energy.......       0.00000000000
   (U)  Reorganization energy........       0.00091166624  (Q-O)
   (V)  Solvation energy.............      -0.01719124243  (P-O)
  
 SCFE:  Solution phase energy: DFT(m06-2x)      -5575.56901250295 hartrees
        SCF iterations:   5
  
 
 HOMO energy:    -0.25476
 LUMO energy:    -0.07183
 
  Orbital energies (hartrees): 
   -90.18306   -90.15892   -78.21093   -67.01115   -67.00666   -25.29539
   -25.29343   -25.29318   -19.69220   -19.68837   -19.66232   -19.66114
   -19.63745   -19.62863   -19.60324   -14.82282   -14.81315   -14.79429
   -14.74790   -10.81059   -10.66752   -10.63588   -10.62629   -10.62216
   -10.60819   -10.60807   -10.59063   -10.58970   -10.58815   -10.58377
   -10.57982   -10.57265   -10.57114   -10.57085   -10.57057   -10.56899
   -10.56825   -10.56675   -10.56420   -10.56317   -10.56291   -10.56217
   -10.56193   -10.56133   -10.55724   -10.55534   -10.55342   -10.55320
   -10.55315   -10.55315   -10.55234   -10.55189   -10.55167   -10.55107
   -10.55085   -10.55078   -10.55070   -10.55068   -10.55012   -10.55007
   -10.54960   -10.54916   -10.54883   -10.54819   -10.54807   -10.54791
   -10.54748   -10.54688   -10.54656   -10.54638   -10.54569   -10.54513
   -10.54497   -10.54449   -10.54443   -10.54416   -10.54316   -10.54294
   -10.54209   -10.54021   -10.54017   -10.54003   -10.53943   -10.53880
   -10.53870   -10.53838   -10.53599   -10.53312   -10.53286   -10.52828
   -10.52692   -10.52645    -8.49329    -8.46731    -6.99040    -6.41559
    -6.41450    -6.41364    -6.38909    -6.38893    -6.38865    -5.54226
    -5.53810    -5.10900    -5.10783    -5.10617    -3.85201    -3.85173
    -3.85158    -3.84788    -3.84758    -3.84734    -1.46103    -1.37033
    -1.36835    -1.25539    -1.23282    -1.22112    -1.18856    -1.14297
    -1.10966    -1.10272    -1.08696    -1.08604    -1.06950    -0.99202
    -0.98163    -0.97384    -0.96772    -0.94595    -0.94418    -0.94172
    -0.93735    -0.93677    -0.93443    -0.92522    -0.92229    -0.91177
    -0.90214    -0.89092    -0.88568    -0.87851    -0.85491    -0.85443
    -0.84505    -0.84395    -0.83764    -0.83724    -0.83542    -0.83527
    -0.83360    -0.83115    -0.82926    -0.82852    -0.82797    -0.82669
    -0.82648    -0.82505    -0.82387    -0.82366    -0.82086    -0.81381
    -0.80166    -0.76239    -0.75639    -0.73955    -0.73313    -0.71541
    -0.71075    -0.70509    -0.70404    -0.69901    -0.69126    -0.68680
    -0.68538    -0.68043    -0.67914    -0.67912    -0.67746    -0.67578
    -0.67383    -0.67358    -0.67248    -0.66898    -0.66632    -0.66498
    -0.66435    -0.66089    -0.66002    -0.65776    -0.65625    -0.65481
    -0.65157    -0.64145    -0.63813    -0.62735    -0.61632    -0.61199
    -0.60859    -0.60334    -0.60033    -0.58719    -0.58317    -0.58129
    -0.58072    -0.57814    -0.57693    -0.57596    -0.57531    -0.57479
    -0.57039    -0.56650    -0.56144    -0.56002    -0.55408    -0.55220
    -0.54793    -0.54653    -0.54001    -0.53825    -0.53570    -0.53494
    -0.53183    -0.52866    -0.52593    -0.52383    -0.52172    -0.51861
    -0.51687    -0.51637    -0.51599    -0.51489    -0.51413    -0.51195
    -0.51062    -0.50769    -0.50595    -0.50435    -0.50213    -0.50095
    -0.50000    -0.49925    -0.49841    -0.49642    -0.49592    -0.49551
    -0.49471    -0.49435    -0.49286    -0.49191    -0.48973    -0.48816
    -0.48484    -0.48232    -0.48163    -0.48097    -0.47731    -0.47571
    -0.47490    -0.47300    -0.47155    -0.46615    -0.46296    -0.46225
    -0.45918    -0.45354    -0.45214    -0.45106    -0.44872    -0.44846
    -0.44624    -0.44450    -0.43847    -0.43476    -0.43274    -0.43141
    -0.42809    -0.42607    -0.42514    -0.42391    -0.42239    -0.42119
    -0.41949    -0.41690    -0.41577    -0.41321    -0.40948    -0.40785
    -0.40519    -0.40221    -0.39945    -0.39810    -0.39490    -0.39343
    -0.39277    -0.39115    -0.39064    -0.38644    -0.38624    -0.38567
    -0.38366    -0.38270    -0.38141    -0.38029    -0.37751    -0.36746
    -0.36631    -0.36009    -0.35619    -0.35349    -0.34935    -0.34766
    -0.34371    -0.34127    -0.34013    -0.33858    -0.33700    -0.33410
    -0.32915    -0.32748    -0.32644    -0.31997    -0.31214    -0.30566
    -0.30495    -0.30233    -0.30155    -0.29903    -0.29622    -0.29537
    -0.29274    -0.29140    -0.29066    -0.28892    -0.28807    -0.28425
    -0.28177    -0.27618    -0.27415    -0.25476    -0.07183    -0.02343
    -0.01969    -0.00230    -0.00030     0.00802     0.01236     0.01422
     0.01970     0.02187
 
  Peak memory usage:   1029 Mb
  
  end of program scf
   
 Time(scf)  user:    10417.3  user+sys:    10417.3  wallclock:    11079.8
  
  start of program sole
  
    SCRF                   solvation energy
  iteration          Hartrees            kcal/mol
     0               0.0000000            0.0000
     1              -0.0171912          -10.7877
  
  solvation energy not yet converged... 
  
  Peak memory usage:    813 Mb
  
  end of program sole
   
 Time(sole)  user:        0.1  user+sys:        0.1  wallclock:        0.1
  
  start of program ch
  
  gridpoints used for charge fit        16367
    out of a possible maximum of        16367
  
   Electrostatic potential fitting constrained to reproduce
     total charge:                yes
     dipole moment:               no 
     traceless quadrupole moment: no 
     traceless octapole moment:   no 
  
  Atomic charges from electrostatic potential: 
   
 Atom       C1           C2           C3           C4           H5      
 Charge   -0.11951     -0.42646      0.19654     -0.02393      0.19692
   
 Atom       C6           C7           C8           C9           H10     
 Charge   -0.35651      0.04805     -0.00245      0.08258      0.19086
   
 Atom       C11          C12          C13          C14          C15     
 Charge    0.10387      0.21659     -0.24243     -0.12224     -0.15168
   
 Atom       C16          H17          H18          H19          H20     
 Charge   -0.17328      0.15498      0.13937      0.14802      0.12505
   
 Atom       C21          C22          C23          C24          C25     
 Charge    0.15716      0.05200     -0.18252     -0.15228     -0.12528
   
 Atom       C26          H27          H28          H29          H30     
 Charge   -0.21273      0.13755      0.14955      0.14210      0.14713
   
 Atom       Si31         Si32         C33          C34          C35     
 Charge   -0.29498      0.12428     -0.16575     -0.11023     -0.18476
   
 Atom       C36          C37          C38          H39          H40     
 Charge    0.12570     -0.17301     -0.11501      0.14100      0.11896
   
 Atom       H41          H42          H43          C44          C45     
 Charge    0.12927      0.13020      0.12416     -0.19638     -0.10130
   
 Atom       C46          C47          C48          C49          H50     
 Charge   -0.26202      0.40967     -0.46853     -0.00302      0.12419
   
 Atom       H51          H52          H53          H54          C55     
 Charge    0.13001      0.14474      0.26164      0.09695     -0.15614
   
 Atom       C56          C57          C58          C59          C60     
 Charge   -0.13025     -0.22377      0.22928     -0.21955     -0.12204
   
 Atom       H61          H62          H63          H64          H65     
 Charge    0.14140      0.13665      0.15953      0.12245      0.13926
   
 Atom       C66          C67          C68          C69          C70     
 Charge   -0.17160     -0.12304     -0.20252      0.18567     -0.22300
   
 Atom       C71          H72          H73          H74          H75     
 Charge   -0.08047      0.13455      0.12549      0.12219      0.12564
   
 Atom       H76          C77          C78          C79          C80     
 Charge    0.11679     -0.05589     -0.29394      0.08468     -0.07747
   
 Atom       C81          C82          H83          H84          H85     
 Charge   -0.05404     -0.21109      0.12800      0.16526      0.07976
   
 Atom       H86          H87          C88          C89          C90     
 Charge    0.05827      0.13351     -0.13073     -0.17898     -0.02316
   
 Atom       C91          C92          C93          H94          H95     
 Charge   -0.06846     -0.13575     -0.13179      0.13687      0.14548
   
 Atom       H96          H97          H98          O99          O100    
 Charge    0.05754      0.11337      0.13657     -0.17687     -0.23414
   
 Atom       P101         O102         N103         H104         C105    
 Charge    0.92261     -0.56571     -0.55461      0.49720      0.09498
   
 Atom       C106         C107         C108         C109         C110    
 Charge   -0.06867     -0.23871     -0.00110      0.20186     -0.11979
   
 Atom       C111         H112         H113         H114         H115    
 Charge   -0.20658      0.14343      0.16509      0.02961      0.16456
   
 Atom       H116         H117         N118         S119         O120    
 Charge    0.16419      0.07390     -0.54612      0.69802     -0.41101
   
 Atom       O121         C122         F123         F124         F125    
 Charge   -0.54648      0.38708     -0.12256     -0.12729     -0.10759
   
 Atom       C126         C127         C128         C129         N130    
 Charge   -0.13253     -0.20730     -0.26464     -0.06039      0.20314
   
 Atom       H131         H132         H133         H134         H135    
 Charge    0.14578      0.21789      0.18953      0.15654      0.14092
   
 Atom       S136         O137         O138         C139         C140    
 Charge    0.67527     -0.43487     -0.43463     -0.38172      0.41370
   
 Atom       N141         C142         C143         C144         H145    
 Charge   -0.54778      0.48046     -0.39756      0.11678      0.18749
   
 Atom       H146         H147         H148    
 Charge    0.02180      0.21271      0.13679
  
  sum of atomic charges:     0.000000
   
 RMS Error   9.76E-04 hartrees
 
  Peak memory usage:    816 Mb
  
  end of program ch
   
 Time(ch)  user:       16.7  user+sys:       16.7  wallclock:       18.1
  
  start of program post
  
  Writing input files for PBF
  Peak memory usage:    759 Mb
  
  end of program post
   
 Time(post)  user:        0.7  user+sys:        0.7  wallclock:        3.7

  start of program pbf

Pbf Version 4.10

Molecular surface area:      831.29304   [A2]
Reaction field energy:       -18.40732   [kT]
  Peak memory usage: 722 Mb

  end of program pbf

 Time(pbf)  user:        5.6  user+sys:        5.7  wallclock:        5.7
  
  start of program solv
  
   number of surface charges from PBF   13368
   sum of surface charges     -0.00021
   
  nuclear repulsion energy.......   20908.324230844 hartrees
  Peak memory usage:    894 Mb
  
  end of program solv
   
 Time(solv)  user:       32.4  user+sys:       32.4  wallclock:       32.5
  
  start of program scf
  
 Energy computed with NOPS off.
  
       i  u  d  i  g                   
       t  p  i  c  r                                 RMS    maximum
       e  d  i  u  i                       energy  density   DIIS  
       r  t  s  t  d       total energy    change  change    error 
  
etot    1  N  N  1  U   -5575.58941557305           5.3E-06  9.8E-05
etot    2  N  N  1  U   -5575.58941540276 -1.7E-07  0.0E+00  0.0E+00
  
  
 Energy components, in hartrees:
   (A)  Total zero-electron terms....   20911.41510938279
   (B)    Nuclear-nuclear............   20908.32423084409
   (C)    Nuclear-solvent............       3.09087853869
   (E)  Total one-electron terms.....  -49349.19132015847
   (F)    Electron-nuclear...........  -54882.09854574682
   (G)    Electron-solvent...........      -3.12963170133
   (H)    Kinetic....................    5536.03685728968
   (I)  Total two-electron terms.....   22862.18679537293
   (J)    Coulomb....................   23513.44955261909
   (K)    Exchange+Correlation.......    -651.26275724616
   (L)  Electronic energy............  -26487.00452478554  (E+I)
   (N)  Total quantum mech. energy...   -5575.58941540276  (A+L)
   (O)  Gas phase energy.............   -5575.55182126051
   (P)  Solution phase energy........   -5575.57003882144  (Q+R+S)
   (Q)    Total solute energy........   -5575.55066224012  (N-C-G)
   (R)    Total solvent energy.......      -0.01937658132  (C/2+G/2)
   (S)    Solute cavity energy.......       0.00000000000
   (U)  Reorganization energy........       0.00115902039  (Q-O)
   (V)  Solvation energy.............      -0.01821756093  (P-O)
  
 SCFE:  Solution phase energy: DFT(m06-2x)      -5575.57003882144 hartrees
        SCF iterations:   2
  
 
 HOMO energy:    -0.27917
 LUMO energy:    -0.07118
 
  Orbital energies (hartrees): 
   -44.35460   -43.73437   -35.51332   -34.91213   -28.55974   -26.65055
   -26.55365   -26.35877   -25.09950   -24.30423   -23.56127   -22.98650
   -22.26206   -21.34520   -20.86318   -20.52597   -19.59788   -19.40834
   -19.32528   -19.00460   -18.63748   -17.27805   -17.10141   -16.79361
   -15.37560   -14.81833   -14.63588   -14.58542   -14.43501   -14.20679
   -13.97008   -13.68132   -13.63502   -13.63069   -13.61393   -13.60724
   -13.22853   -13.02981   -12.77434   -12.40536   -12.25028   -11.98978
   -11.98819   -11.91014   -11.76723   -11.76719   -11.70560   -11.46583
   -11.24299   -11.16972   -11.16503   -10.99615   -10.99040   -10.89046
   -10.80140   -10.74081   -10.70118   -10.66113   -10.62837   -10.61850
   -10.60774   -10.60452   -10.58134   -10.54668   -10.54523   -10.54211
   -10.53201   -10.50310   -10.49566   -10.49004   -10.45794   -10.44818
   -10.44664   -10.44069   -10.40951   -10.40308   -10.38987   -10.36737
   -10.36139   -10.28615   -10.23265   -10.22692   -10.19111   -10.18283
   -10.17152   -10.14049   -10.13799   -10.10672   -10.09495   -10.06796
   -10.05024   -10.01686   -10.01467   -10.01008    -9.93373    -9.87151
    -9.73622    -9.72803    -9.72755    -9.72572    -9.62942    -9.26777
    -9.25745    -9.13392    -9.07954    -8.13344    -8.02258    -7.24597
    -7.15738    -7.05123    -5.79274    -5.48083    -1.43450    -1.39167
    -1.37804    -1.24694    -1.19374    -1.13846    -1.02944    -0.99278
    -0.95679    -0.95641    -0.95351    -0.91727    -0.89089    -0.87865
    -0.87594    -0.87183    -0.86789    -0.86751    -0.85816    -0.85780
    -0.85075    -0.84812    -0.84248    -0.83960    -0.83334    -0.83281
    -0.83274    -0.83115    -0.82728    -0.82633    -0.82573    -0.82469
    -0.82098    -0.81818    -0.81665    -0.81665    -0.80004    -0.79937
    -0.79649    -0.79130    -0.79009    -0.78904    -0.78757    -0.78564
    -0.78509    -0.78118    -0.77161    -0.76850    -0.76551    -0.76459
    -0.76239    -0.75586    -0.75463    -0.75252    -0.73842    -0.73682
    -0.72798    -0.71510    -0.71089    -0.70922    -0.70471    -0.70188
    -0.69741    -0.69498    -0.68819    -0.68587    -0.68353    -0.66963
    -0.66887    -0.66795    -0.66348    -0.66199    -0.65931    -0.65359
    -0.65349    -0.65227    -0.64937    -0.63848    -0.63771    -0.63620
    -0.63578    -0.63100    -0.62573    -0.62039    -0.61910    -0.60864
    -0.60623    -0.60579    -0.60553    -0.60500    -0.60431    -0.60225
    -0.59972    -0.59580    -0.59159    -0.58769    -0.58689    -0.58532
    -0.58416    -0.58213    -0.58051    -0.57533    -0.56548    -0.56446
    -0.56209    -0.56185    -0.56142    -0.55886    -0.55725    -0.55616
    -0.55460    -0.55262    -0.55081    -0.54888    -0.54836    -0.54832
    -0.54423    -0.54215    -0.54170    -0.54034    -0.53992    -0.53925
    -0.53864    -0.53717    -0.53669    -0.53458    -0.53290    -0.53278
    -0.53270    -0.52718    -0.52536    -0.52396    -0.52333    -0.52330
    -0.52250    -0.52130    -0.52080    -0.51935    -0.51490    -0.51331
    -0.51155    -0.50929    -0.50661    -0.50521    -0.50392    -0.50378
    -0.50251    -0.50061    -0.49825    -0.49740    -0.49696    -0.49664
    -0.49207    -0.49014    -0.48721    -0.48691    -0.48511    -0.48056
    -0.48035    -0.47913    -0.47734    -0.47678    -0.47653    -0.47527
    -0.47354    -0.46670    -0.46656    -0.46588    -0.46085    -0.45926
    -0.45768    -0.45741    -0.45623    -0.45601    -0.45601    -0.45525
    -0.45098    -0.45027    -0.44707    -0.44685    -0.44295    -0.44249
    -0.44162    -0.44103    -0.44049    -0.43954    -0.43754    -0.43732
    -0.43698    -0.43623    -0.43616    -0.43517    -0.43491    -0.43128
    -0.43082    -0.42883    -0.42690    -0.42283    -0.41711    -0.41649
    -0.41563    -0.41529    -0.41331    -0.40611    -0.39034    -0.38863
    -0.38573    -0.37496    -0.34263    -0.34222    -0.32960    -0.32675
    -0.32071    -0.32032    -0.31696    -0.31677    -0.31132    -0.31132
    -0.31049    -0.30968    -0.30689    -0.30628    -0.30580    -0.30448
    -0.29573    -0.29435    -0.28656    -0.27917    -0.07118    -0.02296
    -0.01974    -0.00226     0.00007     0.00801     0.01249     0.01431
     0.01983     0.02186
 
  Peak memory usage:   1029 Mb
  
  end of program scf
   
 Time(scf)  user:     2231.3  user+sys:     2231.3  wallclock:     2255.4
  
  start of program sole
  
    SCRF                   solvation energy
  iteration          Hartrees            kcal/mol
     0               0.0000000            0.0000
     1              -0.0171912          -10.7877
     2              -0.0182176          -11.4317
  
  solvation energy not yet converged... 
  
  Peak memory usage:    813 Mb
  
  end of program sole
   
 Time(sole)  user:        0.1  user+sys:        0.1  wallclock:        0.1
  
  start of program ch
  
  gridpoints used for charge fit        16367
    out of a possible maximum of        16367
  
   Electrostatic potential fitting constrained to reproduce
     total charge:                yes
     dipole moment:               no 
     traceless quadrupole moment: no 
     traceless octapole moment:   no 
  
  Atomic charges from electrostatic potential: 
   
 Atom       C1           C2           C3           C4           H5      
 Charge   -0.11935     -0.42824      0.19780     -0.02516      0.19760
   
 Atom       C6           C7           C8           C9           H10     
 Charge   -0.35730      0.04846     -0.00373      0.08291      0.19110
   
 Atom       C11          C12          C13          C14          C15     
 Charge    0.10416      0.21727     -0.24357     -0.12172     -0.15167
   
 Atom       C16          H17          H18          H19          H20     
 Charge   -0.17351      0.15548      0.13998      0.14864      0.12493
   
 Atom       C21          C22          C23          C24          C25     
 Charge    0.15705      0.05237     -0.18274     -0.15220     -0.12480
   
 Atom       C26          H27          H28          H29          H30     
 Charge   -0.21363      0.13754      0.15014      0.14273      0.14753
   
 Atom       Si31         Si32         C33          C34          C35     
 Charge   -0.29773      0.12213     -0.16569     -0.11037     -0.18533
   
 Atom       C36          C37          C38          H39          H40     
 Charge    0.12555     -0.17406     -0.11489      0.14173      0.11979
   
 Atom       H41          H42          H43          C44          C45     
 Charge    0.12926      0.13020      0.12428     -0.19678     -0.10103
   
 Atom       C46          C47          C48          C49          H50     
 Charge   -0.26219      0.41020     -0.47025     -0.00291      0.12486
   
 Atom       H51          H52          H53          H54          C55     
 Charge    0.13043      0.14477      0.26231      0.09699     -0.15588
   
 Atom       C56          C57          C58          C59          C60     
 Charge   -0.13043     -0.22422      0.22913     -0.22026     -0.12221
   
 Atom       H61          H62          H63          H64          H65     
 Charge    0.14199      0.13729      0.15979      0.12225      0.13984
   
 Atom       C66          C67          C68          C69          C70     
 Charge   -0.17282     -0.12230     -0.20263      0.18616     -0.22350
   
 Atom       C71          H72          H73          H74          H75     
 Charge   -0.08129      0.13502      0.12618      0.12243      0.12570
   
 Atom       H76          C77          C78          C79          C80     
 Charge    0.11677     -0.05532     -0.29426      0.08457     -0.07779
   
 Atom       C81          C82          H83          H84          H85     
 Charge   -0.05504     -0.21119      0.12841      0.16574      0.07993
   
 Atom       H86          H87          C88          C89          C90     
 Charge    0.05858      0.13411     -0.13048     -0.17933     -0.02335
   
 Atom       C91          C92          C93          H94          H95     
 Charge   -0.06861     -0.13646     -0.13179      0.13751      0.14614
   
 Atom       H96          H97          H98          O99          O100    
 Charge    0.05744      0.11325      0.13717     -0.17573     -0.23308
   
 Atom       P101         O102         N103         H104         C105    
 Charge    0.91973     -0.56422     -0.55464      0.49691      0.09352
   
 Atom       C106         C107         C108         C109         C110    
 Charge   -0.06716     -0.23773     -0.00048      0.19991     -0.12160
   
 Atom       C111         H112         H113         H114         H115    
 Charge   -0.20622      0.14411      0.16553      0.02912      0.16403
   
 Atom       H116         H117         N118         S119         O120    
 Charge    0.16468      0.07410     -0.54579      0.69589     -0.40912
   
 Atom       O121         C122         F123         F124         F125    
 Charge   -0.54655      0.38766     -0.12294     -0.12713     -0.10758
   
 Atom       C126         C127         C128         C129         N130    
 Charge   -0.13126     -0.20863     -0.26340     -0.05667      0.20142
   
 Atom       H131         H132         H133         H134         H135    
 Charge    0.14497      0.21774      0.19015      0.15662      0.14075
   
 Atom       S136         O137         O138         C139         C140    
 Charge    0.67308     -0.43486     -0.43529     -0.38033      0.41349
   
 Atom       N141         C142         C143         C144         H145    
 Charge   -0.54993      0.47926     -0.39725      0.11840      0.18806
   
 Atom       H146         H147         H148    
 Charge    0.02184      0.21310      0.13792
  
  sum of atomic charges:     0.000000
   
 RMS Error   9.76E-04 hartrees
 
  Peak memory usage:    816 Mb
  
  end of program ch
   
 Time(ch)  user:       16.3  user+sys:       16.3  wallclock:       19.4
  
  start of program post
  
  Writing input files for PBF
  Peak memory usage:    759 Mb
  
  end of program post
   
 Time(post)  user:        0.7  user+sys:        0.7  wallclock:        0.9

  start of program pbf

Pbf Version 4.10

Molecular surface area:      831.29304   [A2]
Reaction field energy:       -18.67811   [kT]
  Peak memory usage: 722 Mb

  end of program pbf

 Time(pbf)  user:        5.7  user+sys:        5.8  wallclock:        5.8
  
  start of program solv
  
   number of surface charges from PBF   13368
   sum of surface charges     -0.00022
   
  nuclear repulsion energy.......   20908.324230844 hartrees
  Peak memory usage:    894 Mb
  
  end of program solv
   
 Time(solv)  user:       32.6  user+sys:       32.6  wallclock:       32.7
  
  start of program scf
  
 Energy computed with NOPS off.
  
       i  u  d  i  g                   
       t  p  i  c  r                                 RMS    maximum
       e  d  i  u  i                       energy  density   DIIS  
       r  t  s  t  d       total energy    change  change    error 
  
etot    1  N  N  1  U   -5575.58968798688           5.4E-06  1.3E-04
etot    2  N  N  1  U   -5575.58967181448 -1.6E-05  0.0E+00  0.0E+00
  
  
 Energy components, in hartrees:
   (A)  Total zero-electron terms....   20911.46804395772
   (B)    Nuclear-nuclear............   20908.32423084409
   (C)    Nuclear-solvent............       3.14381311363
   (E)  Total one-electron terms.....  -49348.86057760412
   (F)    Electron-nuclear...........  -54881.70521068735
   (G)    Electron-solvent...........      -3.18273255870
   (H)    Kinetic....................    5536.02736564193
   (I)  Total two-electron terms.....   22861.80286183192
   (J)    Coulomb....................   23513.06514237727
   (K)    Exchange+Correlation.......    -651.26228054535
   (L)  Electronic energy............  -26487.05771577220  (E+I)
   (N)  Total quantum mech. energy...   -5575.58967181448  (A+L)
   (O)  Gas phase energy.............   -5575.55182126051
   (P)  Solution phase energy........   -5575.57021209194  (Q+R+S)
   (Q)    Total solute energy........   -5575.55075236941  (N-C-G)
   (R)    Total solvent energy.......      -0.01945972254  (C/2+G/2)
   (S)    Solute cavity energy.......       0.00000000000
   (U)  Reorganization energy........       0.00106889111  (Q-O)
   (V)  Solvation energy.............      -0.01839083143  (P-O)
  
 SCFE:  Solution phase energy: DFT(m06-2x)      -5575.57021209194 hartrees
        SCF iterations:   2
  
 
 HOMO energy:    -0.25517
 LUMO energy:    -0.07269
 
  Orbital energies (hartrees): 
   -90.18497   -90.15991   -78.21184   -67.01216   -67.00756   -25.29632
   -25.29371   -25.29370   -19.69309   -19.68921   -19.66368   -19.66153
   -19.63866   -19.62842   -19.60328   -14.82587   -14.81355   -14.79637
   -14.74956   -10.81124   -10.67011   -10.63760   -10.62713   -10.62328
   -10.60829   -10.60656   -10.59179   -10.58833   -10.58793   -10.58559
   -10.57874   -10.57305   -10.57144   -10.57114   -10.57066   -10.57033
   -10.56869   -10.56545   -10.56372   -10.56314   -10.56261   -10.56260
   -10.56221   -10.56209   -10.55780   -10.55409   -10.55342   -10.55339
   -10.55330   -10.55326   -10.55238   -10.55228   -10.55156   -10.55148
   -10.55137   -10.55073   -10.55063   -10.55051   -10.55047   -10.54994
   -10.54948   -10.54936   -10.54860   -10.54830   -10.54819   -10.54811
   -10.54774   -10.54762   -10.54703   -10.54657   -10.54628   -10.54623
   -10.54558   -10.54529   -10.54420   -10.54403   -10.54342   -10.54299
   -10.54206   -10.54100   -10.54087   -10.54080   -10.54065   -10.53982
   -10.53964   -10.53918   -10.53702   -10.53425   -10.53387   -10.52947
   -10.52801   -10.52756    -8.49514    -8.46828    -6.99130    -6.41744
    -6.41637    -6.41549    -6.39006    -6.38990    -6.38963    -5.54326
    -5.53900    -5.10990    -5.10873    -5.10707    -3.85300    -3.85273
    -3.85258    -3.84878    -3.84847    -3.84824    -1.46167    -1.37099
    -1.36895    -1.25687    -1.23366    -1.22193    -1.18940    -1.14429
    -1.11041    -1.10284    -1.08744    -1.08711    -1.07150    -0.99301
    -0.98216    -0.97416    -0.96809    -0.94638    -0.94456    -0.94207
    -0.93824    -0.93716    -0.93481    -0.92492    -0.92259    -0.91212
    -0.90288    -0.89142    -0.88564    -0.87894    -0.85501    -0.85474
    -0.84549    -0.84443    -0.83811    -0.83764    -0.83578    -0.83557
    -0.83375    -0.83162    -0.82988    -0.82897    -0.82850    -0.82712
    -0.82692    -0.82557    -0.82459    -0.82412    -0.82125    -0.81464
    -0.80207    -0.76312    -0.75703    -0.73973    -0.73378    -0.71610
    -0.71131    -0.70547    -0.70430    -0.69952    -0.69175    -0.68732
    -0.68605    -0.68071    -0.67962    -0.67951    -0.67778    -0.67615
    -0.67421    -0.67394    -0.67291    -0.66937    -0.66719    -0.66539
    -0.66466    -0.66122    -0.66048    -0.65834    -0.65664    -0.65540
    -0.65204    -0.64180    -0.63853    -0.62790    -0.61722    -0.61258
    -0.60911    -0.60379    -0.60071    -0.58796    -0.58354    -0.58155
    -0.58116    -0.57853    -0.57748    -0.57639    -0.57582    -0.57511
    -0.57064    -0.56710    -0.56206    -0.56039    -0.55461    -0.55298
    -0.54848    -0.54706    -0.54053    -0.53865    -0.53636    -0.53524
    -0.53233    -0.52911    -0.52644    -0.52435    -0.52204    -0.51891
    -0.51717    -0.51682    -0.51637    -0.51531    -0.51456    -0.51227
    -0.51106    -0.50824    -0.50643    -0.50493    -0.50251    -0.50131
    -0.50039    -0.49966    -0.49878    -0.49668    -0.49636    -0.49591
    -0.49517    -0.49501    -0.49327    -0.49220    -0.49007    -0.48789
    -0.48513    -0.48261    -0.48193    -0.48120    -0.47770    -0.47609
    -0.47562    -0.47350    -0.47208    -0.46653    -0.46307    -0.46216
    -0.45938    -0.45392    -0.45253    -0.45138    -0.44915    -0.44878
    -0.44667    -0.44484    -0.43945    -0.43533    -0.43307    -0.43235
    -0.42859    -0.42654    -0.42558    -0.42428    -0.42274    -0.42163
    -0.42023    -0.41729    -0.41617    -0.41399    -0.40995    -0.40842
    -0.40610    -0.40246    -0.40013    -0.39868    -0.39527    -0.39433
    -0.39326    -0.39150    -0.39104    -0.38689    -0.38686    -0.38612
    -0.38411    -0.38314    -0.38224    -0.38099    -0.37797    -0.36785
    -0.36675    -0.36046    -0.35676    -0.35406    -0.35036    -0.34820
    -0.34436    -0.34177    -0.34073    -0.33926    -0.33757    -0.33482
    -0.32966    -0.32791    -0.32712    -0.32036    -0.31224    -0.30620
    -0.30539    -0.30278    -0.30194    -0.29939    -0.29667    -0.29584
    -0.29322    -0.29219    -0.29116    -0.28945    -0.28882    -0.28471
    -0.28226    -0.27666    -0.27453    -0.25517    -0.07269    -0.02389
    -0.02011    -0.00277    -0.00041     0.00755     0.01193     0.01379
     0.01921     0.02140
 
  Peak memory usage:   1029 Mb
  
  end of program scf
   
 Time(scf)  user:     2227.6  user+sys:     2227.6  wallclock:     2252.7
  
  start of program sole
  
    SCRF                   solvation energy
  iteration          Hartrees            kcal/mol
     0               0.0000000            0.0000
     1              -0.0171912          -10.7877
     2              -0.0182176          -11.4317
     3              -0.0183908          -11.5404
  
  solvation energy not yet converged... 
  
  Peak memory usage:    813 Mb
  
  end of program sole
   
 Time(sole)  user:        0.1  user+sys:        0.1  wallclock:        0.1
  
  start of program ch
  
  gridpoints used for charge fit        16367
    out of a possible maximum of        16367
  
   Electrostatic potential fitting constrained to reproduce
     total charge:                yes
     dipole moment:               no 
     traceless quadrupole moment: no 
     traceless octapole moment:   no 
  
  Atomic charges from electrostatic potential: 
   
 Atom       C1           C2           C3           C4           H5      
 Charge   -0.11906     -0.42783      0.19890     -0.02536      0.19720
   
 Atom       C6           C7           C8           C9           H10     
 Charge   -0.35824      0.05050     -0.00289      0.08199      0.19120
   
 Atom       C11          C12          C13          C14          C15     
 Charge    0.10305      0.21690     -0.24315     -0.12266     -0.15261
   
 Atom       C16          H17          H18          H19          H20     
 Charge   -0.17267      0.15547      0.14020      0.14887      0.12468
   
 Atom       C21          C22          C23          C24          C25     
 Charge    0.15710      0.05254     -0.18312     -0.15272     -0.12599
   
 Atom       C26          H27          H28          H29          H30     
 Charge   -0.21293      0.13760      0.15028      0.14294      0.14742
   
 Atom       Si31         Si32         C33          C34          C35     
 Charge   -0.29689      0.12208     -0.16704     -0.11046     -0.18574
   
 Atom       C36          C37          C38          H39          H40     
 Charge    0.12738     -0.17366     -0.11528      0.14191      0.11981
   
 Atom       H41          H42          H43          C44          C45     
 Charge    0.12917      0.13016      0.12419     -0.19761     -0.10186
   
 Atom       C46          C47          C48          C49          H50     
 Charge   -0.26265      0.41149     -0.46921     -0.00314      0.12480
   
 Atom       H51          H52          H53          H54          C55     
 Charge    0.13050      0.14467      0.26223      0.09687     -0.15675
   
 Atom       C56          C57          C58          C59          C60     
 Charge   -0.13077     -0.22435      0.23047     -0.21954     -0.12293
   
 Atom       H61          H62          H63          H64          H65     
 Charge    0.14212      0.13733      0.15963      0.12203      0.13988
   
 Atom       C66          C67          C68          C69          C70     
 Charge   -0.17255     -0.12359     -0.20445      0.18853     -0.22390
   
 Atom       C71          H72          H73          H74          H75     
 Charge   -0.08061      0.13491      0.12619      0.12239      0.12591
   
 Atom       H76          C77          C78          C79          C80     
 Charge    0.11646     -0.05636     -0.29469      0.08459     -0.07640
   
 Atom       C81          C82          H83          H84          H85     
 Charge   -0.05410     -0.21240      0.12855      0.16582      0.07983
   
 Atom       H86          H87          C88          C89          C90     
 Charge    0.05866      0.13407     -0.13129     -0.17981     -0.02319
   
 Atom       C91          C92          C93          H94          H95     
 Charge   -0.06789     -0.13549     -0.13256      0.13765      0.14621
   
 Atom       H96          H97          H98          O99          O100    
 Charge    0.05710      0.11303      0.13725     -0.17621     -0.23349
   
 Atom       P101         O102         N103         H104         C105    
 Charge    0.92284     -0.56626     -0.55223      0.49720      0.09961
   
 Atom       C106         C107         C108         C109         C110    
 Charge   -0.06987     -0.23957     -0.00130      0.20309     -0.11980
   
 Atom       C111         H112         H113         H114         H115    
 Charge   -0.20733      0.14469      0.16580      0.02914      0.16376
   
 Atom       H116         H117         N118         S119         O120    
 Charge    0.16483      0.07266     -0.54494      0.69736     -0.41077
   
 Atom       O121         C122         F123         F124         F125    
 Charge   -0.54669      0.38655     -0.12259     -0.12746     -0.10714
   
 Atom       C126         C127         C128         C129         N130    
 Charge   -0.13078     -0.20815     -0.26596     -0.06186      0.20212
   
 Atom       H131         H132         H133         H134         H135    
 Charge    0.14528      0.21787      0.19080      0.15741      0.14156
   
 Atom       S136         O137         O138         C139         C140    
 Charge    0.67590     -0.43760     -0.43683     -0.38204      0.41293
   
 Atom       N141         C142         C143         C144         H145    
 Charge   -0.54714      0.48099     -0.39793      0.11584      0.18818
   
 Atom       H146         H147         H148    
 Charge    0.02169      0.21308      0.13850
  
  sum of atomic charges:     0.000000
   
 RMS Error   9.77E-04 hartrees
 
  Peak memory usage:    816 Mb
  
  end of program ch
   
 Time(ch)  user:       15.9  user+sys:       15.9  wallclock:       19.5
  
  start of program post
  
  Writing input files for PBF
  Peak memory usage:    759 Mb
  
  end of program post
   
 Time(post)  user:        0.6  user+sys:        0.6  wallclock:        0.8

  start of program pbf

Pbf Version 4.10

Molecular surface area:      831.29304   [A2]
Reaction field energy:       -18.57476   [kT]
  Peak memory usage: 722 Mb

  end of program pbf

 Time(pbf)  user:        5.6  user+sys:        5.7  wallclock:        5.7
  
  start of program solv
  
   number of surface charges from PBF   13368
   sum of surface charges     -0.00021
   
  nuclear repulsion energy.......   20908.324230844 hartrees
  Peak memory usage:    894 Mb
  
  end of program solv
   
 Time(solv)  user:       32.5  user+sys:       32.5  wallclock:       32.6
  
  start of program scf
  
 Energy computed with NOPS off.
  
       i  u  d  i  g                   
       t  p  i  c  r                                 RMS    maximum
       e  d  i  u  i                       energy  density   DIIS  
       r  t  s  t  d       total energy    change  change    error 
  
etot    1  N  N  1  U   -5575.58957521645           8.8E-06  2.2E-04
etot    2  N  Y  1  U   -5575.58951818458 -5.7E-05  5.7E-06  4.1E-04
etot    3  N  Y  1  U   -5575.58959761393  7.9E-05  1.5E-07  8.4E-06
etot    4  N  N  1  U   -5575.58959767165  5.8E-08  0.0E+00  0.0E+00
  
  
 Energy components, in hartrees:
   (A)  Total zero-electron terms....   20911.43559381096
   (B)    Nuclear-nuclear............   20908.32423084409
   (C)    Nuclear-solvent............       3.11136296687
   (E)  Total one-electron terms.....  -49349.05424474689
   (F)    Electron-nuclear...........  -54881.93452058910
   (G)    Electron-solvent...........      -3.15024530204
   (H)    Kinetic....................    5536.03052114425
   (I)  Total two-electron terms.....   22862.02905326428
   (J)    Coulomb....................   23513.29130874206
   (K)    Exchange+Correlation.......    -651.26225547778
   (L)  Electronic energy............  -26487.02519148261  (E+I)
   (N)  Total quantum mech. energy...   -5575.58959767165  (A+L)
   (O)  Gas phase energy.............   -5575.55182126051
   (P)  Solution phase energy........   -5575.57015650407  (Q+R+S)
   (Q)    Total solute energy........   -5575.55071533648  (N-C-G)
   (R)    Total solvent energy.......      -0.01944116758  (C/2+G/2)
   (S)    Solute cavity energy.......       0.00000000000
   (U)  Reorganization energy........       0.00110592403  (Q-O)
   (V)  Solvation energy.............      -0.01833524356  (P-O)
  
 SCFE:  Solution phase energy: DFT(m06-2x)      -5575.57015650407 hartrees
        SCF iterations:   4
  
 
 HOMO energy:    -0.25497
 LUMO energy:    -0.07176
 
  Orbital energies (hartrees): 
   -90.18328   -90.15899   -78.21100   -67.01123   -67.00676   -25.29576
   -25.29378   -25.29346   -19.69230   -19.68847   -19.66321   -19.66253
   -19.63768   -19.62898   -19.60356   -14.82238   -14.81316   -14.79406
   -14.74779   -10.81085   -10.66709   -10.63581   -10.62643   -10.62217
   -10.60839   -10.60796   -10.59059   -10.58920   -10.58795   -10.58352
   -10.57951   -10.57293   -10.57144   -10.57126   -10.57045   -10.56904
   -10.56850   -10.56661   -10.56410   -10.56344   -10.56285   -10.56235
   -10.56233   -10.56154   -10.55744   -10.55542   -10.55358   -10.55335
   -10.55332   -10.55326   -10.55247   -10.55212   -10.55171   -10.55139
   -10.55104   -10.55085   -10.55082   -10.55070   -10.55029   -10.55022
   -10.54979   -10.54931   -10.54904   -10.54832   -10.54825   -10.54823
   -10.54774   -10.54697   -10.54674   -10.54665   -10.54584   -10.54549
   -10.54499   -10.54472   -10.54453   -10.54449   -10.54322   -10.54314
   -10.54245   -10.54048   -10.54042   -10.54015   -10.53973   -10.53906
   -10.53886   -10.53866   -10.53628   -10.53322   -10.53311   -10.52847
   -10.52708   -10.52663    -8.49354    -8.46740    -6.99048    -6.41584
    -6.41477    -6.41388    -6.38918    -6.38902    -6.38874    -5.54234
    -5.53821    -5.10908    -5.10791    -5.10625    -3.85209    -3.85182
    -3.85167    -3.84799    -3.84769    -3.84745    -1.46134    -1.37067
    -1.36864    -1.25603    -1.23294    -1.22127    -1.18866    -1.14377
    -1.10985    -1.10279    -1.08705    -1.08601    -1.06936    -0.99211
    -0.98183    -0.97375    -0.96795    -0.94617    -0.94441    -0.94191
    -0.93763    -0.93698    -0.93466    -0.92490    -0.92243    -0.91192
    -0.90209    -0.89114    -0.88574    -0.87836    -0.85485    -0.85461
    -0.84524    -0.84414    -0.83783    -0.83744    -0.83565    -0.83542
    -0.83364    -0.83134    -0.82947    -0.82875    -0.82818    -0.82688
    -0.82667    -0.82523    -0.82412    -0.82387    -0.82106    -0.81381
    -0.80184    -0.76255    -0.75629    -0.73932    -0.73331    -0.71536
    -0.71089    -0.70522    -0.70392    -0.69917    -0.69145    -0.68706
    -0.68568    -0.68054    -0.67931    -0.67922    -0.67761    -0.67597
    -0.67400    -0.67372    -0.67250    -0.66917    -0.66659    -0.66517
    -0.66450    -0.66106    -0.66010    -0.65796    -0.65643    -0.65480
    -0.65173    -0.64152    -0.63822    -0.62748    -0.61625    -0.61215
    -0.60876    -0.60351    -0.60046    -0.58736    -0.58328    -0.58132
    -0.58075    -0.57826    -0.57710    -0.57612    -0.57546    -0.57497
    -0.57039    -0.56677    -0.56173    -0.56018    -0.55424    -0.55246
    -0.54806    -0.54664    -0.54014    -0.53840    -0.53588    -0.53492
    -0.53199    -0.52879    -0.52617    -0.52405    -0.52184    -0.51871
    -0.51699    -0.51640    -0.51609    -0.51502    -0.51429    -0.51209
    -0.51079    -0.50768    -0.50613    -0.50463    -0.50231    -0.50113
    -0.50017    -0.49940    -0.49833    -0.49646    -0.49599    -0.49570
    -0.49479    -0.49452    -0.49296    -0.49205    -0.48990    -0.48780
    -0.48499    -0.48246    -0.48181    -0.48106    -0.47746    -0.47590
    -0.47514    -0.47320    -0.47173    -0.46631    -0.46308    -0.46214
    -0.45922    -0.45375    -0.45231    -0.45117    -0.44890    -0.44854
    -0.44640    -0.44467    -0.43888    -0.43492    -0.43290    -0.43175
    -0.42830    -0.42621    -0.42536    -0.42404    -0.42243    -0.42136
    -0.41975    -0.41708    -0.41596    -0.41355    -0.40959    -0.40808
    -0.40544    -0.40236    -0.39967    -0.39825    -0.39505    -0.39389
    -0.39300    -0.39133    -0.39081    -0.38660    -0.38645    -0.38585
    -0.38389    -0.38289    -0.38162    -0.38048    -0.37767    -0.36755
    -0.36637    -0.36004    -0.35636    -0.35368    -0.34931    -0.34787
    -0.34387    -0.34129    -0.34029    -0.33875    -0.33718    -0.33416
    -0.32921    -0.32767    -0.32652    -0.31994    -0.31215    -0.30589
    -0.30516    -0.30258    -0.30182    -0.29921    -0.29646    -0.29555
    -0.29298    -0.29164    -0.29088    -0.28909    -0.28832    -0.28444
    -0.28199    -0.27618    -0.27433    -0.25497    -0.07176    -0.02331
    -0.01991    -0.00247    -0.00011     0.00781     0.01227     0.01410
     0.01959     0.02166
 
  Peak memory usage:   1029 Mb
  
  end of program scf
   
 Time(scf)  user:     6603.0  user+sys:     6603.0  wallclock:     6675.1
  
  start of program sole
  
    SCRF                   solvation energy
  iteration          Hartrees            kcal/mol
     0               0.0000000            0.0000
     1              -0.0171912          -10.7877
     2              -0.0182176          -11.4317
     3              -0.0183908          -11.5404
     4              -0.0183352          -11.5055
  
  stopping: solvation energy converged
  
  iterations:   4    sfinal:    -11.5055 kcal/mol
  
  Peak memory usage:    813 Mb
  
  end of program sole
   
 Time(sole)  user:        0.1  user+sys:        0.1  wallclock:        0.1
  
  start of program post
  
  Writing input files for PBF
  Peak memory usage:    759 Mb
  
  end of program post
   
 Time(post)  user:        0.6  user+sys:        0.6  wallclock:        0.8

 Total cpu seconds     user:   57494.686   user+sys:   57494.686
  
 Total elapsed time:    60603 seconds

Job Type-I-Z-sulfonyl-bind-1-chkp-unrestrained_SPE completed on tethys at Wed Mar  8 08:13:52 2017
