Command:    jaguar run jexec.py -jobname Type-I-Z-sulfonyl-bind-1-chkp-unrestrained_SPE -nsubjobs 1 Type-I-Z-sulfonyl-bind-1-chkp-unrestrained_SPE.in
[running at reduced cpu priority]
Release:    2017-1
Exec:       /usr/local/shared/schrodinger/current/jaguar-v9.5/bin/Linux-x86_64
Host:       tethys
JobId:      tethys-0-58bed083
JobDir:     /scratch/ab2144/Type-I-Z-sulfonyl-bind-1-chkp-unrestrained_SPE
Date:       Tue Mar  7 15:23:49 2017

Contents of /scratch/ab2144/Type-I-Z-sulfonyl-bind-1-chkp-unrestrained_SPE:
/scratch/ab2144/Type-I-Z-sulfonyl-bind-1-chkp-unrestrained_SPE/Type-I-Z-sulfonyl-bind-1-chkp-unrestrained_SPE.mae
/scratch/ab2144/Type-I-Z-sulfonyl-bind-1-chkp-unrestrained_SPE/Type-I-Z-sulfonyl-bind-1-chkp-unrestrained_SPE.recover
/scratch/ab2144/Type-I-Z-sulfonyl-bind-1-chkp-unrestrained_SPE/tethys-0-58bed083.nodes
/scratch/ab2144/Type-I-Z-sulfonyl-bind-1-chkp-unrestrained_SPE/tethys-0-58bed083.recover
/scratch/ab2144/Type-I-Z-sulfonyl-bind-1-chkp-unrestrained_SPE/tethys-0-58bed083
/scratch/ab2144/Type-I-Z-sulfonyl-bind-1-chkp-unrestrained_SPE/Type-I-Z-sulfonyl-bind-1-chkp-unrestrained_SPE.log
/scratch/ab2144/Type-I-Z-sulfonyl-bind-1-chkp-unrestrained_SPE/Type-I-Z-sulfonyl-bind-1-chkp-unrestrained_SPE.in

Executing subprocess:
/usr/local/shared/schrodinger/current/jaguar-v9.5/bin/Linux-x86_64/jexec Type-I-Z-sulfonyl-bind-1-chkp-unrestrained_SPE.in -cwd -out /scratch/ab2144/Type-I-Z-sulfonyl-bind-1-chkp-unrestrained_SPE

[running at reduced cpu priority]
[running at reduced cpu priority]
Job Type-I-Z-sulfonyl-bind-1-chkp-unrestrained_SPE started on tethys at Tue Mar  7 15:23:49 2017
jobid: tethys-0-58bed083 
Jaguar version 9.5, release  11
Molecular Point Group: C1      
Point Group used: C1
pre (input checking) done.
onee (1-electron integrals) done.
hfig (HF initial guess) done.
probe (project orbitals) done.
grid (grid generation) done.
rwr (Q operators) done.
scf type: DFT=M06-2X
  
       i  u  d  i  g
       t  p  i  c  r                                 RMS    maximum
       e  d  i  u  i                       energy  density   DIIS  
       r  t  s  t  d       total energy    change  change    error 
  
etot    1  N  N  1  U   -5562.77611367150           3.5E-03  1.0E-01
etot    2  N  Y  1  U   -5536.91272124465 -2.6E+01  1.7E-02  1.2E-01
etot    3  N  Y  1  U   -5314.53158531995 -2.2E+02  1.6E-02  3.9E-01
etot    4  N  Y  1  U   -5566.47390145688  2.5E+02  3.5E-03  9.3E-02
etot    5  N  Y  1  U   -5567.13220037479  6.6E-01  3.0E-03  6.0E-02
etot    6  N  Y  1  U   -5564.66991092082 -2.5E+00  1.6E-03  7.8E-02
etot    7  N  Y  1  U   -5575.26737009324  1.1E+01  5.2E-04  2.1E-02
etot    8  N  Y  1  U   -5575.49502195343  2.3E-01  1.8E-04  1.1E-02
etot    9  N  Y  1  U   -5575.54505934577  5.0E-02  5.9E-05  2.2E-03
etot   10  N  Y  1  U   -5575.55091738763  5.9E-03  2.3E-05  8.7E-04
etot   11  N  Y  1  U   -5575.55156882751  6.5E-04  1.1E-05  7.1E-04
etot   12  N  Y  1  U   -5575.55177536960  2.1E-04  5.8E-06  1.8E-04
etot   13  N  N  1  U   -5575.55182126051  4.6E-05  0.0E+00  0.0E+00
scf (DFT) done.
--------gas phase calculation complete----------------------
ch (properties) done.
post (output conversion) done.
pbf (Poisson-Boltzmann solver) done.
solv (solvation checking) done.
  
       i  u  d  i  g
       t  p  i  c  r                                 RMS    maximum
       e  d  i  u  i                       energy  density   DIIS  
       r  t  s  t  d       total energy    change  change    error 
  
etot    1  N  N  1  U   -5575.58620390147           4.7E-05  6.8E-04
etot    2  N  Y  1  U   -5575.58687552683  6.7E-04  1.5E-05  5.4E-04
etot    3  N  Y  1  U   -5575.58705816394  1.8E-04  5.6E-06  3.3E-04
etot    4  N  Y  1  U   -5575.58710911994  5.1E-05  2.3E-06  1.1E-04
etot    5  N  N  1  U   -5575.58711541162  6.3E-06  0.0E+00  0.0E+00
scf (DFT) done.
sole (solvation energy) done.
----------solvation iteration  1 complete------------------
ch (properties) done.
post (output conversion) done.
pbf (Poisson-Boltzmann solver) done.
solv (solvation checking) done.
  
       i  u  d  i  g
       t  p  i  c  r                                 RMS    maximum
       e  d  i  u  i                       energy  density   DIIS  
       r  t  s  t  d       total energy    change  change    error 
  
etot    1  N  N  1  U   -5575.58941557305           5.3E-06  9.8E-05
etot    2  N  N  1  U   -5575.58941540276 -1.7E-07  0.0E+00  0.0E+00
scf (DFT) done.
sole (solvation energy) done.
----------solvation iteration  2 complete------------------
ch (properties) done.
post (output conversion) done.
pbf (Poisson-Boltzmann solver) done.
solv (solvation checking) done.
  
       i  u  d  i  g
       t  p  i  c  r                                 RMS    maximum
       e  d  i  u  i                       energy  density   DIIS  
       r  t  s  t  d       total energy    change  change    error 
  
etot    1  N  N  1  U   -5575.58968798688           5.4E-06  1.3E-04
etot    2  N  N  1  U   -5575.58967181448 -1.6E-05  0.0E+00  0.0E+00
scf (DFT) done.
sole (solvation energy) done.
----------solvation iteration  3 complete------------------
ch (properties) done.
post (output conversion) done.
pbf (Poisson-Boltzmann solver) done.
solv (solvation checking) done.
  
       i  u  d  i  g
       t  p  i  c  r                                 RMS    maximum
       e  d  i  u  i                       energy  density   DIIS  
       r  t  s  t  d       total energy    change  change    error 
  
etot    1  N  N  1  U   -5575.58957521645           8.8E-06  2.2E-04
etot    2  N  Y  1  U   -5575.58951818458 -5.7E-05  5.7E-06  4.1E-04
etot    3  N  Y  1  U   -5575.58959761393  7.9E-05  1.5E-07  8.4E-06
etot    4  N  N  1  U   -5575.58959767165  5.8E-08  0.0E+00  0.0E+00
scf (DFT) done.
sole (solvation energy) done.
----final solvation iteration  4 complete------------------
post (output conversion) done.
Job Type-I-Z-sulfonyl-bind-1-chkp-unrestrained_SPE completed on tethys at Wed Mar  8 08:13:52 2017
Timer (jaguar_backend.py) : 60603.21 secs (16 hrs, 50 mins, 03 secs)
Finished:   Wed Mar  8 08:13:52 2017
