Job Type-II-Z-sulfonyl-bind-4-chkp-2-scan-unrestrained-IRC-min-disp-SPE started on tethys at Fri Mar 24 13:23:28 2017
jobid: tethys-0-58d51dcd

  +--------------------------------------------------------------------+
  |  Jaguar version 9.5, release  11                                   |
  |                                                                    |
  |  Copyright Schrodinger, Inc.                                       |
  |  All Rights Reserved.                                              |
  |                                                                    |
  |  The following have contributed to Jaguar (listed alphabetically): |
  |  Mike Beachy, Art Bochevarov, Dale Braden, Yixiang Cao,            |
  |  Chris Cortis, Rich Friesner, Bill Goddard, Hod Greeley,           |
  |  Tom Hughes, Leif Jacobson, Jean-Marc Langlois,                    |
  |  Daniel Mainz, Rob Murphy, Dean Philipp, Tom Pollard,              |
  |  Murco Ringnalda, Mark Watson, Haoyu Yu.                           |
  |                                                                    |
  |  Use of this program should be acknowledged in publications as:    |
  |                                                                    |
  |  Jaguar, version 9.5, Schrodinger, Inc., New York, NY, 2017.       |
  |                                                                    |
  |  A. D. Bochevarov, E. Harder, T. F. Hughes, J. R. Greenwood,       |
  |  D. A. Braden, D. M. Philipp, D. Rinaldo, M. D. Halls,             |
  |  J. Zhang, R. A. Friesner, "Jaguar: A High-Performance Quantum     |
  |  Chemistry Software Program with Strengths in Life and Materials   |
  |  Sciences", Int. J. Quantum Chem., 2013, 113(18), 2110-2142.       |
  +--------------------------------------------------------------------+
  
  start of program pre
  
  Job name: Type-II-Z-sulfonyl-bind-4-chkp-2-scan-unrestrained-IRC-min-disp-SPE
  Executables used: /usr/local/shared/schrodinger/current/jaguar-v9.5/bin/Linux-x86_64
  Temporary files : /scratch/ab2144/Type-II-Z-sulfonyl-bind-4-chkp-2-scan-unrestrained-IRC-min-disp-SPE
  Maestro file (input):  Type-II-Z-sulfonyl-bind-4-chkp-2-scan-unrestrained-IRC-min-disp-SPE.mae
  Maestro file (output): Type-II-Z-sulfonyl-bind-4-chkp-2-scan-unrestrained-IRC-min-disp-SPE.01.mae
  
  basis set:             6-31g**                         
  net molecular charge:    0
  multiplicity:            1
  
  keygrid settings 
    wispc.....   7.500E-01
    ldens.....   0
    denspc....   7.500E-01
  
   grid     daf set  nls  grid set  Q type
  ------    -------  ---  --------  ------
  coarse       1      1       1        1
  medium       2      2       2        1
  fine         3      2       3        0
  ultrafine    4      2       4        1
  charge       0      1      -1        1
  gradient     5      2       4        1
  density      0      1       0        0
  DFT-fine     0      1     -13        0
  DFT-med.     0      1     -13        0
  DFT-grad     0      1     -13        0
  DFT-der2     0      1       0        0
  DFT-cphf     0      1       0        0
  LMP2-enrg    4      2       4        1
  LMP2-grad    5      2       2        1
  DFT-cphf2    0      1       0        0
  PBF-dens     0      1       0        0
  plotting     0      1       0        0
  Rel-grad     0      1     -17        0
  
  idftgrdm  100
  ndftgrdm   50    0    0
  idftgrdf  111
  ndftgrdf   85    0    0
  idftgrdg  111
  ndftgrdg   80    3    0
  idftgrdu  433
  ndftgrdu  105    0    0
  idftgrdd  433
  ndftgrdd  105    0    0
  idftgrdc  433
  ndftgrdc   26    0    0
  idftgrdp  433
  ndftgrdp   18    0    0
  
  number of basis functions....         1680
  
 Input geometry:
                                   angstroms
  atom               x                 y                 z
  C1            1.5118000000      2.8885000000     -0.7896000000 
  C2           -0.3446000000      4.9690000000     -0.3147000000 
  C3           -0.7921000000      3.5607000000     -0.2491000000 
  C4            0.1066000000      2.5613000000     -0.3850000000 
  H5           -1.0553000000      5.7687000000     -0.1482000000 
  C6            4.5479000000      0.0135000000     -1.7553000000 
  C7            3.9305000000     -0.0342000000     -0.5644000000 
  C8            2.7428000000      0.8295000000     -0.3234000000 
  C9            2.4303000000      1.7981000000     -1.2043000000 
  H10           5.4485000000     -0.5547000000     -1.9385000000 
  C11           1.9223000000      4.1811000000     -0.7842000000 
  C12           0.9386000000      5.2641000000     -0.5414000000 
  C13           1.3975000000      6.6670000000     -0.5867000000 
  C14           2.6834000000      6.9496000000     -0.8183000000 
  C15           3.6812000000      5.8793000000     -1.0252000000 
  C16           3.3360000000      4.5866000000     -1.0077000000 
  H17           0.6947000000      7.4774000000     -0.4335000000 
  H18           3.0061000000      7.9824000000     -0.8479000000 
  H19           4.7166000000      6.1521000000     -1.1847000000 
  H20           4.1153000000      3.8468000000     -1.1354000000 
  C21           4.0599000000      0.9154000000     -2.8175000000 
  C22           3.0586000000      1.7855000000     -2.5583000000 
  C23           2.5658000000      2.6691000000     -3.6487000000 
  C24           3.1345000000      2.6287000000     -4.8592000000 
  C25           4.2501000000      1.6997000000     -5.1242000000 
  C26           4.6888000000      0.8853000000     -4.1581000000 
  H27           1.7368000000      3.3437000000     -3.4795000000 
  H28           2.7726000000      3.2725000000     -5.6504000000 
  H29           4.7082000000      1.6756000000     -6.1046000000 
  H30           5.5041000000      0.2021000000     -4.3615000000 
  Si31         -2.5982000000      3.2386000000      0.1056000000 
  Si32          4.7180000000     -0.9465000000      0.8618000000 
  C33          -4.2053000000     -0.2301000000     -2.6125000000 
  C34          -4.7203000000     -0.0553000000     -1.3905000000 
  C35          -4.2016000000      1.0147000000     -0.5122000000 
  C36          -3.2170000000      1.8235000000     -0.9390000000 
  C37          -2.6544000000      1.6258000000     -2.2983000000 
  C38          -3.1215000000      0.6516000000     -3.0882000000 
  H39          -4.5801000000     -1.0168000000     -3.2536000000 
  H40          -5.5148000000     -0.7012000000     -1.0403000000 
  H41          -4.6408000000      1.1331000000      0.4664000000 
  H42          -1.8619000000      2.2686000000     -2.6600000000 
  H43          -2.7057000000      0.5071000000     -4.0769000000 
  C44          -3.1295000000      2.5466000000      4.7111000000 
  C45          -4.2033000000      2.7126000000      3.9308000000 
  C46          -4.0403000000      2.8912000000      2.4740000000 
  C47          -2.8130000000      2.9167000000      1.9271000000 
  C48          -1.6255000000      2.7561000000      2.8019000000 
  C49          -1.7779000000      2.5675000000      4.1183000000 
  H50          -3.2485000000      2.4072000000      5.7776000000 
  H51          -5.1950000000      2.7123000000      4.3639000000 
  H52          -4.9234000000      3.0373000000      1.8649000000 
  H53          -0.6274000000      2.7923000000      2.3883000000 
  H54          -0.9101000000      2.4448000000      4.7534000000 
  C55          -4.9606000000      7.0816000000     -1.1718000000 
  C56          -4.4745000000      6.2509000000     -2.1009000000 
  C57          -3.7316000000      5.0396000000     -1.6956000000 
  C58          -3.5544000000      4.7563000000     -0.3939000000 
  C59          -4.0772000000      5.6941000000      0.6310000000 
  C60          -4.7465000000      6.7927000000      0.2602000000 
  H61          -5.5041000000      7.9698000000     -1.4670000000 
  H62          -4.6236000000      6.4639000000     -3.1515000000 
  H63          -3.3365000000      4.3908000000     -2.4657000000 
  H64          -3.9042000000      5.5141000000      1.6828000000 
  H65          -5.1227000000      7.4781000000      1.0087000000 
  C66           8.2486000000     -3.6644000000     -0.6411000000 
  C67           8.4629000000     -2.7765000000      0.3356000000 
  C68           7.3610000000     -1.9120000000      0.8076000000 
  C69           6.1321000000     -2.0201000000      0.2707000000 
  C70           5.9121000000     -2.9916000000     -0.8308000000 
  C71           6.9127000000     -3.7709000000     -1.2584000000 
  H72           9.0550000000     -4.2975000000     -0.9879000000 
  H73           9.4441000000     -2.6897000000      0.7843000000 
  H74           7.5741000000     -1.1999000000      1.5902000000 
  H75           4.9539000000     -3.0490000000     -1.3265000000 
  H76           6.7495000000     -4.4684000000     -2.0698000000 
  C77           1.6142000000     -3.6596000000      3.1078000000 
  C78           1.9758000000     -2.4833000000      3.6306000000 
  C79           2.9225000000     -1.6111000000      2.9079000000 
  C80           3.4455000000     -2.0002000000      1.7310000000 
  C81           3.0190000000     -3.2961000000      1.1490000000 
  C82           2.1520000000     -4.0798000000      1.8014000000 
  H83           0.9244000000     -4.3030000000      3.6379000000 
  H84           1.5810000000     -2.1691000000      4.5877000000 
  H85           3.1808000000     -0.6597000000      3.3510000000 
  H86           3.4025000000     -3.6261000000      0.1985000000 
  H87           1.8456000000     -5.0257000000      1.3739000000 
  C88           6.3549000000      2.2157000000      3.9226000000 
  C89           5.9062000000      2.6207000000      2.7290000000 
  C90           5.3955000000      1.6340000000      1.7550000000 
  C91           5.3728000000      0.3250000000      2.0641000000 
  C92           5.8797000000     -0.1164000000      3.3875000000 
  C93           6.3428000000      0.7800000000      4.2670000000 
  H94           6.7290000000      2.9380000000      4.6366000000 
  H95           5.9159000000      3.6724000000      2.4733000000 
  H96           5.0522000000      1.9924000000      0.7948000000 
  H97           5.8754000000     -1.1676000000      3.6476000000 
  H98           6.7099000000      0.4550000000      5.2318000000 
  O99          -0.3208000000      1.2588000000     -0.2774000000 
  O100          2.0462000000      0.7254000000      0.8531000000 
  P101          0.5082000000      0.2045000000      0.6568000000 
  O102         -0.0510000000      0.1203000000      2.0545000000 
  N103         -3.1686000000     -2.5668000000     -0.2527000000 
  H104         -2.4966000000     -2.1580000000     -0.9224000000 
  C105         -2.9605000000     -2.0123000000      1.0845000000 
  C106         -6.5362000000     -1.1289000000      3.3699000000 
  C107         -5.3235000000     -0.5118000000      3.6746000000 
  C108         -4.1875000000     -0.7821000000      2.9115000000 
  C109         -4.2385000000     -1.7070000000      1.8580000000 
  C110         -5.4639000000     -2.3054000000      1.5437000000 
  C111         -6.6035000000     -2.0121000000      2.2933000000 
  H112         -7.4224000000     -0.9116000000      3.9588000000 
  H113         -5.2649000000      0.1835000000      4.5057000000 
  H114         -3.2620000000     -0.2557000000      3.1262000000 
  H115         -5.5312000000     -2.9936000000      0.7119000000 
  H116         -7.5469000000     -2.4821000000      2.0315000000 
  H117         -2.4532000000     -1.0630000000      0.8893000000 
  N118          0.4155000000     -1.1999000000     -0.1451000000 
  S119          0.1978000000     -1.3632000000     -1.7182000000 
  O120          0.8798000000     -0.3920000000     -2.5838000000 
  O121         -1.2130000000     -1.6719000000     -2.0632000000 
  C122          1.0799000000     -2.9789000000     -2.0196000000 
  F123          0.6758000000     -3.4642000000     -3.2050000000 
  F124          2.3996000000     -2.7736000000     -2.0723000000 
  F125          0.8099000000     -3.8784000000     -1.0754000000 
  C126         -1.8898000000     -2.8288000000      1.9419000000 
  C127         -2.4081000000     -3.9532000000      2.7719000000 
  C128         -2.1160000000     -3.7158000000      4.0745000000 
  C129         -1.4024000000     -2.4643000000      4.1208000000 
  N130         -1.2577000000     -1.9627000000      2.9291000000 
  H131         -1.1149000000     -3.1562000000      1.2336000000 
  H132         -2.9526000000     -4.7874000000      2.3494000000 
  H133         -2.3589000000     -4.3237000000      4.9345000000 
  H134         -0.9999000000     -1.9622000000      4.9940000000 
  H135         -0.7177000000     -1.0677000000      2.6213000000 
  S136         -3.2411000000     -4.2159000000     -0.5942000000 
  O137         -1.8931000000     -4.7893000000     -0.7380000000 
  O138         -4.1745000000     -4.8523000000      0.3451000000 
  C139         -5.1064000000     -3.8129000000     -4.6801000000 
  C140         -5.8480000000     -3.8497000000     -3.4965000000 
  N141         -5.2879000000     -3.9818000000     -2.2897000000 
  C142         -3.9662000000     -4.0936000000     -2.2556000000 
  C143         -3.1157000000     -4.0742000000     -3.3586000000 
  C144         -3.7193000000     -3.9236000000     -4.6079000000 
  H145         -5.6106000000     -3.6927000000     -5.6333000000 
  H146         -6.9317000000     -3.7621000000     -3.5153000000 
  H147         -2.0421000000     -4.1450000000     -3.2374000000 
  H148         -3.1115000000     -3.8878000000     -5.5064000000 
   
  principal moments of inertia:
        amu*angstrom^2:    20547.25256    26270.57247    32343.87903
                g*cm^2: 3.41195113E-36 4.36233065E-36 5.37082680E-36
   
  rotational constants:
               cm^(-1):      0.00082043      0.00064169      0.00052120
                   GHz:      0.02459594      0.01923746      0.01562518
   
  Molecular weight:    1308.28 amu
   
  Stoichiometry: Si2C73PN4H56S2O7F3
[running at reduced cpu priority]
  Molecular Point Group: C1      
  Point Group used: C1
  
  nuclear repulsion energy.......   20788.063906562 hartrees
 
 Non-default options chosen:
   SCF calculation type: DFT(m06-2x)                 
   DFT=M06-2X
   Solvation energy will be computed using PBF
     -solute cavity energy will not be included
     -surface area terms will not be included
   Highest accuracy cutoffs used in SCF
   Solvent: other                                                           
   Internal dielectric constant:    1.000
   Continuum dielectric constant:   2.380
   Solvent probe molecule radius:   2.760
  
 Temporary integer options set:
     73=  2
  
  atom       vdw   vdw2    cov     mass  grid  daf  charge   basis
  C1        1.949  1.900  0.770   12.000    Y    Y      Y    6-31g**
  C2        1.949  1.900  0.770   12.000    Y    Y      Y    6-31g**
  C3        1.949  1.900  0.770   12.000    Y    Y      Y    6-31g**
  C4        1.949  1.900  0.770   12.000    Y    Y      Y    6-31g**
  H5        1.597  1.150  0.320    1.008    Y    Y      Y    6-31g**
  C6        1.949  1.900  0.770   12.000    Y    Y      Y    6-31g**
  C7        1.949  1.900  0.770   12.000    Y    Y      Y    6-31g**
  C8        1.949  1.900  0.770   12.000    Y    Y      Y    6-31g**
  C9        1.949  1.900  0.770   12.000    Y    Y      Y    6-31g**
  H10       1.597  1.150  0.320    1.008    Y    Y      Y    6-31g**
  C11       1.949  1.900  0.770   12.000    Y    Y      Y    6-31g**
  C12       1.949  1.900  0.770   12.000    Y    Y      Y    6-31g**
  C13       1.949  1.900  0.770   12.000    Y    Y      Y    6-31g**
  C14       1.949  1.900  0.770   12.000    Y    Y      Y    6-31g**
  C15       1.949  1.900  0.770   12.000    Y    Y      Y    6-31g**
  C16       1.949  1.900  0.770   12.000    Y    Y      Y    6-31g**
  H17       1.597  1.150  0.320    1.008    Y    Y      Y    6-31g**
  H18       1.597  1.150  0.320    1.008    Y    Y      Y    6-31g**
  H19       1.597  1.150  0.320    1.008    Y    Y      Y    6-31g**
  H20       1.597  1.150  0.320    1.008    Y    Y      Y    6-31g**
  C21       1.949  1.900  0.770   12.000    Y    Y      Y    6-31g**
  C22       1.949  1.900  0.770   12.000    Y    Y      Y    6-31g**
  C23       1.949  1.900  0.770   12.000    Y    Y      Y    6-31g**
  C24       1.949  1.900  0.770   12.000    Y    Y      Y    6-31g**
  C25       1.949  1.900  0.770   12.000    Y    Y      Y    6-31g**
  C26       1.949  1.900  0.770   12.000    Y    Y      Y    6-31g**
  H27       1.597  1.150  0.320    1.008    Y    Y      Y    6-31g**
  H28       1.597  1.150  0.320    1.008    Y    Y      Y    6-31g**
  H29       1.597  1.150  0.320    1.008    Y    Y      Y    6-31g**
  H30       1.597  1.150  0.320    1.008    Y    Y      Y    6-31g**
  Si31      2.217  2.147  1.110   27.977    Y    Y      Y    6-31g**
  Si32      2.217  2.147  1.110   27.977    Y    Y      Y    6-31g**
  C33       1.949  1.900  0.770   12.000    Y    Y      Y    6-31g**
  C34       1.949  1.900  0.770   12.000    Y    Y      Y    6-31g**
  C35       1.949  1.900  0.770   12.000    Y    Y      Y    6-31g**
  C36       1.949  1.900  0.770   12.000    Y    Y      Y    6-31g**
  C37       1.949  1.900  0.770   12.000    Y    Y      Y    6-31g**
  C38       1.949  1.900  0.770   12.000    Y    Y      Y    6-31g**
  H39       1.597  1.150  0.320    1.008    Y    Y      Y    6-31g**
  H40       1.597  1.150  0.320    1.008    Y    Y      Y    6-31g**
  H41       1.597  1.150  0.320    1.008    Y    Y      Y    6-31g**
  H42       1.597  1.150  0.320    1.008    Y    Y      Y    6-31g**
  H43       1.597  1.150  0.320    1.008    Y    Y      Y    6-31g**
  C44       1.949  1.900  0.770   12.000    Y    Y      Y    6-31g**
  C45       1.949  1.900  0.770   12.000    Y    Y      Y    6-31g**
  C46       1.949  1.900  0.770   12.000    Y    Y      Y    6-31g**
  C47       1.949  1.900  0.770   12.000    Y    Y      Y    6-31g**
  C48       1.949  1.900  0.770   12.000    Y    Y      Y    6-31g**
  C49       1.949  1.900  0.770   12.000    Y    Y      Y    6-31g**
  H50       1.597  1.150  0.320    1.008    Y    Y      Y    6-31g**
  H51       1.597  1.150  0.320    1.008    Y    Y      Y    6-31g**
  H52       1.597  1.150  0.320    1.008    Y    Y      Y    6-31g**
  H53       1.597  1.150  0.320    1.008    Y    Y      Y    6-31g**
  H54       1.597  1.150  0.320    1.008    Y    Y      Y    6-31g**
  C55       1.949  1.900  0.770   12.000    Y    Y      Y    6-31g**
  C56       1.949  1.900  0.770   12.000    Y    Y      Y    6-31g**
  C57       1.949  1.900  0.770   12.000    Y    Y      Y    6-31g**
  C58       1.949  1.900  0.770   12.000    Y    Y      Y    6-31g**
  C59       1.949  1.900  0.770   12.000    Y    Y      Y    6-31g**
  C60       1.949  1.900  0.770   12.000    Y    Y      Y    6-31g**
  H61       1.597  1.150  0.320    1.008    Y    Y      Y    6-31g**
  H62       1.597  1.150  0.320    1.008    Y    Y      Y    6-31g**
  H63       1.597  1.150  0.320    1.008    Y    Y      Y    6-31g**
  H64       1.597  1.150  0.320    1.008    Y    Y      Y    6-31g**
  H65       1.597  1.150  0.320    1.008    Y    Y      Y    6-31g**
  C66       1.949  1.900  0.770   12.000    Y    Y      Y    6-31g**
  C67       1.949  1.900  0.770   12.000    Y    Y      Y    6-31g**
  C68       1.949  1.900  0.770   12.000    Y    Y      Y    6-31g**
  C69       1.949  1.900  0.770   12.000    Y    Y      Y    6-31g**
  C70       1.949  1.900  0.770   12.000    Y    Y      Y    6-31g**
  C71       1.949  1.900  0.770   12.000    Y    Y      Y    6-31g**
  H72       1.597  1.150  0.320    1.008    Y    Y      Y    6-31g**
  H73       1.597  1.150  0.320    1.008    Y    Y      Y    6-31g**
  H74       1.597  1.150  0.320    1.008    Y    Y      Y    6-31g**
  H75       1.597  1.150  0.320    1.008    Y    Y      Y    6-31g**
  H76       1.597  1.150  0.320    1.008    Y    Y      Y    6-31g**
  C77       1.949  1.900  0.770   12.000    Y    Y      Y    6-31g**
  C78       1.949  1.900  0.770   12.000    Y    Y      Y    6-31g**
  C79       1.949  1.900  0.770   12.000    Y    Y      Y    6-31g**
  C80       1.949  1.900  0.770   12.000    Y    Y      Y    6-31g**
  C81       1.949  1.900  0.770   12.000    Y    Y      Y    6-31g**
  C82       1.949  1.900  0.770   12.000    Y    Y      Y    6-31g**
  H83       1.597  1.150  0.320    1.008    Y    Y      Y    6-31g**
  H84       1.597  1.150  0.320    1.008    Y    Y      Y    6-31g**
  H85       1.597  1.150  0.320    1.008    Y    Y      Y    6-31g**
  H86       1.597  1.150  0.320    1.008    Y    Y      Y    6-31g**
  H87       1.597  1.150  0.320    1.008    Y    Y      Y    6-31g**
  C88       1.949  1.900  0.770   12.000    Y    Y      Y    6-31g**
  C89       1.949  1.900  0.770   12.000    Y    Y      Y    6-31g**
  C90       1.949  1.900  0.770   12.000    Y    Y      Y    6-31g**
  C91       1.949  1.900  0.770   12.000    Y    Y      Y    6-31g**
  C92       1.949  1.900  0.770   12.000    Y    Y      Y    6-31g**
  C93       1.949  1.900  0.770   12.000    Y    Y      Y    6-31g**
  H94       1.597  1.150  0.320    1.008    Y    Y      Y    6-31g**
  H95       1.597  1.150  0.320    1.008    Y    Y      Y    6-31g**
  H96       1.597  1.150  0.320    1.008    Y    Y      Y    6-31g**
  H97       1.597  1.150  0.320    1.008    Y    Y      Y    6-31g**
  H98       1.597  1.150  0.320    1.008    Y    Y      Y    6-31g**
  O99       1.702  1.600  0.730   15.995    Y    Y      Y    6-31g**
  O100      1.702  1.600  0.730   15.995    Y    Y      Y    6-31g**
  P101      2.147  2.074  1.060   30.974    Y    Y      Y    6-31g**
  O102      1.702  1.600  0.730   15.995    Y    Y      Y    6-31g**
  N103      1.831  1.600  0.750   14.003    Y    Y      Y    6-31g**
  H104      1.597  1.150  0.320    1.008    Y    Y      Y    6-31g**
  C105      1.949  1.900  0.770   12.000    Y    Y      Y    6-31g**
  C106      1.949  1.900  0.770   12.000    Y    Y      Y    6-31g**
  C107      1.949  1.900  0.770   12.000    Y    Y      Y    6-31g**
  C108      1.949  1.900  0.770   12.000    Y    Y      Y    6-31g**
  C109      1.949  1.900  0.770   12.000    Y    Y      Y    6-31g**
  C110      1.949  1.900  0.770   12.000    Y    Y      Y    6-31g**
  C111      1.949  1.900  0.770   12.000    Y    Y      Y    6-31g**
  H112      1.597  1.150  0.320    1.008    Y    Y      Y    6-31g**
  H113      1.597  1.150  0.320    1.008    Y    Y      Y    6-31g**
  H114      1.597  1.150  0.320    1.008    Y    Y      Y    6-31g**
  H115      1.597  1.150  0.320    1.008    Y    Y      Y    6-31g**
  H116      1.597  1.150  0.320    1.008    Y    Y      Y    6-31g**
  H117      1.597  1.150  0.320    1.008    Y    Y      Y    6-31g**
  N118      1.831  1.600  0.750   14.003    Y    Y      Y    6-31g**
  S119      2.070  1.900  1.020   31.972    Y    Y      Y    6-31g**
  O120      1.702  1.600  0.730   15.995    Y    Y      Y    6-31g**
  O121      1.702  1.600  0.730   15.995    Y    Y      Y    6-31g**
  C122      1.949  1.900  0.770   12.000    Y    Y      Y    6-31g**
  F123      1.736  1.682  0.720   18.998    Y    Y      Y    6-31g**
  F124      1.736  1.682  0.720   18.998    Y    Y      Y    6-31g**
  F125      1.736  1.682  0.720   18.998    Y    Y      Y    6-31g**
  C126      1.949  1.900  0.770   12.000    Y    Y      Y    6-31g**
  C127      1.949  1.900  0.770   12.000    Y    Y      Y    6-31g**
  C128      1.949  1.900  0.770   12.000    Y    Y      Y    6-31g**
  C129      1.949  1.900  0.770   12.000    Y    Y      Y    6-31g**
  N130      1.831  1.600  0.750   14.003    Y    Y      Y    6-31g**
  H131      1.597  1.150  0.320    1.008    Y    Y      Y    6-31g**
  H132      1.597  1.150  0.320    1.008    Y    Y      Y    6-31g**
  H133      1.597  1.150  0.320    1.008    Y    Y      Y    6-31g**
  H134      1.597  1.150  0.320    1.008    Y    Y      Y    6-31g**
  H135      1.597  1.150  0.320    1.008    Y    Y      Y    6-31g**
  S136      2.070  1.900  1.020   31.972    Y    Y      Y    6-31g**
  O137      1.702  1.600  0.730   15.995    Y    Y      Y    6-31g**
  O138      1.702  1.600  0.730   15.995    Y    Y      Y    6-31g**
  C139      1.949  1.900  0.770   12.000    Y    Y      Y    6-31g**
  C140      1.949  1.900  0.770   12.000    Y    Y      Y    6-31g**
  N141      1.831  1.600  0.750   14.003    Y    Y      Y    6-31g**
  C142      1.949  1.900  0.770   12.000    Y    Y      Y    6-31g**
  C143      1.949  1.900  0.770   12.000    Y    Y      Y    6-31g**
  C144      1.949  1.900  0.770   12.000    Y    Y      Y    6-31g**
  H145      1.597  1.150  0.320    1.008    Y    Y      Y    6-31g**
  H146      1.597  1.150  0.320    1.008    Y    Y      Y    6-31g**
  H147      1.597  1.150  0.320    1.008    Y    Y      Y    6-31g**
  H148      1.597  1.150  0.320    1.008    Y    Y      Y    6-31g**
  
  Peak memory usage:    768 Mb
  
  end of program pre
   
 Time(pre)  user:        0.9  user+sys:        0.9  wallclock:        1.4
  
  start of program onee
  
  smallest eigenvalue of S:    2.185E-04
  number of canonical orbitals.....         1673
  Peak memory usage:    900 Mb
  
  end of program onee
   
 Time(onee)  user:       16.9  user+sys:       16.9  wallclock:       18.9
  
  start of program hfig
  
  initial wavefunction generated automatically from atomic wavefunctions
 
  Irreducible     Total no   No of occupied orbitals 
  representation  orbitals   Shell_1  Shell_2    ...
  No Symm         1673        340
  ------------------------
  Orbital occupation/shell    1.000
 
  Peak memory usage:    833 Mb
  
  end of program hfig
   
 Time(hfig)  user:       36.3  user+sys:       36.3  wallclock:       57.9
  
  start of program probe
  
  Peak memory usage:    826 Mb
  
  end of program probe
   
 Time(probe)  user:       28.0  user+sys:       28.0  wallclock:       53.4
  
  start of program grid
  
   grid     grid set  grid #  grid sym
  ------    --------  ------  --------
  coarse        0        0        1
  medium        2        1        1
  fine          0        0        1
  ultrafine     4        2        1
  charge       -1        3        1
  gradient      4        2        1
  density       0        0        1
  DFT-fine    -13        4        1
  DFT-med.    -13        4        1
  DFT-grad    -13        4        1
  DFT-der2      0        0        1
  DFT-cphf      0        0        1
  LMP2-enrg     4        2        1
  LMP2-grad     2        1        1
  DFT-cphf2     0        0        1
  PBF-dens      0        0        1
  plotting      0        0        1
  Rel-grad    -17        0        1
  
  number of gridpoints: 
     atom        C1       C2       C3       C4       H5       C6       C7
  grid # 1      100       94      100       97      110       93      100
  grid # 2      360      336      359      359      426      333      362
  grid # 3       13       29       13       11      191       14        9
  grid # 4    48124    48124    48124    48124    48426    48124    48124
   
  number of gridpoints: 
     atom        C8       C9      H10      C11      C12      C13      C14
  grid # 1       95      100      110      102      102       98       94
  grid # 2      348      353      427      360      366      340      337
  grid # 3        7        7      184       32       45       47       48
  grid # 4    48124    48124    48426    48124    48124    48124    48124
   
  number of gridpoints: 
     atom       C15      C16      H17      H18      H19      H20      C21
  grid # 1       95       96      118      118      118      111      101
  grid # 2      338      338      442      450      447      427      365
  grid # 3       37       30      362      418      391      184       31
  grid # 4    48124    48124    48426    48426    48426    48426    48124
   
  number of gridpoints: 
     atom       C22      C23      C24      C25      C26      H27      H28
  grid # 1      101       96       94       94       96      112      118
  grid # 2      355      337      336      335      336      434      452
  grid # 3        7       24       35       45       39      241      418
  grid # 4    48124    48124    48124    48124    48124    48426    48426
   
  number of gridpoints: 
     atom       H29      H30     Si31     Si32      C33      C34      C35
  grid # 1      118      118      471      473       93       93       93
  grid # 2      453      445      471      473      333      332      333
  grid # 3      424      354        9        9       27       27       23
  grid # 4    48426    48426    38542    38542    48124    48124    48124
   
  number of gridpoints: 
     atom       C36      C37      C38      H39      H40      H41      H42
  grid # 1       98       96       93      112      112      108      111
  grid # 2      361      334      330      434      433      419      427
  grid # 3       12       15       23      223      231      149      178
  grid # 4    48124    48124    48124    48426    48426    48426    48426
   
  number of gridpoints: 
     atom       H43      C44      C45      C46      C47      C48      C49
  grid # 1      117       93       92       92      101       96       94
  grid # 2      449      333      330      331      359      337      334
  grid # 3      360       25       18        8       14       23       28
  grid # 4    48426    48124    48124    48124    48124    48124    48124
   
  number of gridpoints: 
     atom       H50      H51      H52      H53      H54      C55      C56
  grid # 1      117      115      112      110      117       94       94
  grid # 2      450      440      426      420      451      336      336
  grid # 3      384      304      204      174      370       43       41
  grid # 4    48426    48426    48426    48426    48426    48124    48124
   
  number of gridpoints: 
     atom       C57      C58      C59      C60      H61      H62      H63
  grid # 1       93      101       96       93      118      118      111
  grid # 2      336      359      335      336      453      453      434
  grid # 3       29       17       25       41      424      420      226
  grid # 4    48124    48124    48124    48124    48426    48426    48426
   
  number of gridpoints: 
     atom       H64      H65      C66      C67      C68      C69      C70
  grid # 1      112      118       94       94       93      101       94
  grid # 2      434      452      336      336      338      360      333
  grid # 3      232      422       49       48       34       21       22
  grid # 4    48426    48426    48124    48124    48124    48124    48124
   
  number of gridpoints: 
     atom       C71      H72      H73      H74      H75      H76      C77
  grid # 1       94      118      118      112      108      118       93
  grid # 2      336      453      452      431      417      452      333
  grid # 3       42      425      418      230      115      418       29
  grid # 4    48124    48426    48426    48426    48426    48426    48124
   
  number of gridpoints: 
     atom       C78      C79      C80      C81      C82      H83      H84
  grid # 1       93       92      101       97       93      112      113
  grid # 2      332      334      357      337      334      440      436
  grid # 3       26       15       18       29       30      286      275
  grid # 4    48124    48124    48124    48124    48124    48426    48426
   
  number of gridpoints: 
     atom       H85      H86      H87      C88      C89      C90      C91
  grid # 1      110      109      115       94       94       92      100
  grid # 2      428      414      446      335      335      338      358
  grid # 3      192      134      328       45       44       26        8
  grid # 4    48426    48426    48426    48124    48124    48124    48124
   
  number of gridpoints: 
     atom       C92      C93      H94      H95      H96      H97      H98
  grid # 1       94       92      118      118      110      112      118
  grid # 2      329      335      453      449      426      435      451
  grid # 3       10       28      425      376      171      252      421
  grid # 4    48124    48124    48426    48426    48426    48426    48426
   
  number of gridpoints: 
     atom       O99     O100     P101     O102     N103     H104     C105
  grid # 1      111      112      447      114       99       96       91
  grid # 2      429      443      447      436      351      391      317
  grid # 3       28       61        7       57        8       41        6
  grid # 4    47716    47716    38640    47716    47928    48426    48124
   
  number of gridpoints: 
     atom      C106     C107     C108     C109     C110     C111     H112
  grid # 1       96       96       95      100       95       96      118
  grid # 2      332      331      329      360      329      334      450
  grid # 3       39       34       17       12       21       37      415
  grid # 4    48124    48124    48124    48124    48124    48124    48426
   
  number of gridpoints: 
     atom      H113     H114     H115     H116     H117     N118     S119
  grid # 1      111      107      109      118      101      110      432
  grid # 2      429      412      415      450      403      402      432
  grid # 3      228      118      127      407       62       20        7
  grid # 4    48426    48426    48426    48426    48426    47928    48492
   
  number of gridpoints: 
     atom      O120     O121     C122     F123     F124     F125     C126
  grid # 1      119      116       91      531      516      513       91
  grid # 2      487      457      321      531      516      513      316
  grid # 3      136       56        7      235      106       87        6
  grid # 4    47716    47716    48124    47062    47062    47062    48124
   
  number of gridpoints: 
     atom      C127     C128     C129     N130     H131     H132     H133
  grid # 1       93       92       92      100      104      112      117
  grid # 2      329      329      331      345      414      436      458
  grid # 3       13       16        9        6       91      262      437
  grid # 4    48124    48124    48124    47928    48426    48426    48426
   
  number of gridpoints: 
     atom      H134     H135     S136     O137     O138     C139     C140
  grid # 1      114      100      439      119      118       96       96
  grid # 2      447      388      439      484      483      329      337
  grid # 3      296       69       10      161      181       30       28
  grid # 4    48426    48426    48492    47716    47716    48124    48124
   
  number of gridpoints: 
     atom      N141     C142     C143     C144     H145     H146     H147
  grid # 1      112       98       96       96      117      117      109
  grid # 2      418      359      328      330      451      453      427
  grid # 3       91       35       34       33      414      430      177
  grid # 4    47928    48124    48124    48124    48426    48426    48426
   
  number of gridpoints: 
     atom      H148    total
  grid # 1      117    18355
  grid # 2      453    57770
  grid # 3      406    19052
  grid # 4    48426  7104526
   
  Peak memory usage:    795 Mb
  
  end of program grid
   
 Time(grid)  user:     1080.2  user+sys:     1080.2  wallclock:     2290.5
  
  start of program rwr
  
  Peak memory usage:    814 Mb
  
  end of program rwr
   
 Time(rwr)  user:       67.7  user+sys:       67.7  wallclock:      236.0
  
  start of program scf
  
 number of electrons..........        680
 number of alpha electrons....        340
 number of beta electrons.....        340
 number of orbitals, total....       1673
 number of doubly-occ'd orbs..        340
 number of open shell orbs....          0
 number of occupied orbitals..        340
 number of virtual orbitals...       1333
 number of hamiltonians.......          1
 number of shells.............          1
 SCF type: DFT=M06-2X
 Energy computed with NOPS off.
  
       i  u  d  i  g                   
       t  p  i  c  r                                 RMS    maximum
       e  d  i  u  i                       energy  density   DIIS  
       r  t  s  t  d       total energy    change  change    error 
  
etot    1  N  N  1  U   -5562.71687654602           4.2E-03  1.0E-01
etot    2  N  Y  1  U   -5527.00830562658 -3.6E+01  2.1E-02  1.2E-01
etot    3  N  Y  1  U   -5298.77801699675 -2.3E+02  2.1E-02  3.3E-01
etot    4  N  Y  1  U   -5570.96439144347  2.7E+02  2.3E-03  6.3E-02
etot    5  N  Y  1  U   -5573.18355589135  2.2E+00  1.5E-03  4.5E-02
etot    6  N  Y  1  U   -5573.11765578831 -6.6E-02  1.1E-03  3.4E-02
etot    7  N  Y  1  U   -5574.98216378998  1.9E+00  5.6E-04  2.3E-02
etot    8  N  Y  1  U   -5575.55982217114  5.8E-01  1.5E-04  4.7E-03
etot    9  N  Y  1  U   -5575.56759163494  7.8E-03  7.4E-05  3.4E-03
etot   10  N  Y  1  U   -5575.57777564690  1.0E-02  2.1E-05  8.4E-04
etot   11  N  Y  1  U   -5575.57853427365  7.6E-04  1.2E-05  4.5E-04
etot   12  N  Y  1  U   -5575.57876346855  2.3E-04  5.2E-06  1.5E-04
etot   13  N  N  1  U   -5575.57879956436  3.6E-05  0.0E+00  0.0E+00
  
  
 Energy components, in hartrees:
   (A)  Nuclear repulsion............   20788.06390656237
   (E)  Total one-electron terms.....  -49104.29232179951
   (F)    Electron-nuclear...........  -54640.33821253070
   (H)    Kinetic....................    5536.04589073120
   (I)  Total two-electron terms.....   22740.64961567278
   (J)    Coulomb....................   23391.94778066819
   (K)    Exchange+Correlation.......    -651.29816499541
   (L)  Electronic energy............  -26363.64270612673  (E+I)
   (M)  -V/T.........................       2.00714100093  (-(A+F+I)/H)
   (N)  Total energy.................   -5575.57879956436  (A+L)
   (O)  Gas phase energy.............   -5575.57879956436
  
 SCFE: SCF energy: DFT(m06-2x)     -5575.57879956436 hartrees   iterations:  13
  
 
 HOMO energy:    -0.24992
 LUMO energy:    -0.06393
 
  Orbital energies (hartrees): 
   -90.15519   -90.14835   -78.21730   -67.00936   -67.00577   -25.29062
   -25.28745   -25.28657   -19.69563   -19.69171   -19.63703   -19.63419
   -19.62372   -19.61779   -19.61677   -14.84607   -14.78543   -14.78154
   -14.74106   -10.80344   -10.66417   -10.62681   -10.62671   -10.62596
   -10.62527   -10.61663   -10.60843   -10.60523   -10.59767   -10.58780
   -10.58187   -10.58058   -10.57049   -10.56858   -10.56344   -10.56315
   -10.56236   -10.55796   -10.55485   -10.55428   -10.55371   -10.55335
   -10.55333   -10.55238   -10.55113   -10.55088   -10.55086   -10.55072
   -10.55047   -10.54996   -10.54988   -10.54971   -10.54970   -10.54955
   -10.54951   -10.54938   -10.54877   -10.54856   -10.54826   -10.54810
   -10.54797   -10.54795   -10.54771   -10.54754   -10.54748   -10.54697
   -10.54621   -10.54606   -10.54596   -10.54582   -10.54564   -10.54561
   -10.54483   -10.54457   -10.54433   -10.54413   -10.54403   -10.54273
   -10.54177   -10.53839   -10.53707   -10.53622   -10.53515   -10.53379
   -10.53369   -10.53348   -10.53328   -10.53234   -10.53195   -10.52939
   -10.52838   -10.52294    -8.46584    -8.45722    -6.99624    -6.38769
    -6.38721    -6.38651    -6.37900    -6.37866    -6.37859    -5.54008
    -5.53708    -5.11461    -5.11386    -5.11226    -3.84981    -3.84970
    -3.84936    -3.84696    -3.84650    -3.84631    -1.45506    -1.36510
    -1.36236    -1.23187    -1.22833    -1.21052    -1.18909    -1.13763
    -1.11368    -1.10038    -1.09664    -1.07786    -1.03347    -0.98703
    -0.97675    -0.96238    -0.95599    -0.94529    -0.94485    -0.94122
    -0.94006    -0.93874    -0.92764    -0.92477    -0.92186    -0.91780
    -0.90799    -0.90221    -0.88668    -0.88211    -0.85013    -0.84999
    -0.84428    -0.84206    -0.83860    -0.83684    -0.83609    -0.83458
    -0.83406    -0.83261    -0.83115    -0.82740    -0.82686    -0.82515
    -0.82423    -0.82292    -0.81984    -0.81863    -0.81492    -0.79788
    -0.79568    -0.76057    -0.74943    -0.73467    -0.72896    -0.71544
    -0.70527    -0.70199    -0.69879    -0.69565    -0.69360    -0.68716
    -0.68351    -0.68218    -0.68096    -0.67927    -0.67860    -0.67809
    -0.67324    -0.67267    -0.67206    -0.67099    -0.66937    -0.66744
    -0.66262    -0.66200    -0.66006    -0.65910    -0.65281    -0.64940
    -0.64725    -0.63984    -0.62987    -0.62412    -0.60702    -0.60234
    -0.59967    -0.59846    -0.59556    -0.58187    -0.58074    -0.58011
    -0.57880    -0.57824    -0.57460    -0.57412    -0.57000    -0.56890
    -0.56674    -0.55962    -0.55906    -0.55814    -0.55422    -0.54901
    -0.54795    -0.54141    -0.53900    -0.53730    -0.53428    -0.53058
    -0.52912    -0.52501    -0.52375    -0.52255    -0.51981    -0.51879
    -0.51786    -0.51725    -0.51551    -0.51334    -0.51214    -0.51100
    -0.50702    -0.50478    -0.50390    -0.50258    -0.50219    -0.49929
    -0.49858    -0.49849    -0.49747    -0.49607    -0.49464    -0.49272
    -0.49210    -0.48982    -0.48924    -0.48862    -0.48513    -0.48354
    -0.48336    -0.48298    -0.48129    -0.47984    -0.47841    -0.47800
    -0.47650    -0.47578    -0.46793    -0.46680    -0.46292    -0.45677
    -0.45524    -0.45390    -0.45160    -0.45072    -0.44823    -0.44635
    -0.44276    -0.43859    -0.43566    -0.43101    -0.42740    -0.42594
    -0.42507    -0.42375    -0.42169    -0.42001    -0.41893    -0.41783
    -0.41510    -0.40910    -0.40641    -0.40259    -0.40126    -0.40041
    -0.39960    -0.39526    -0.39377    -0.39211    -0.39163    -0.39113
    -0.39078    -0.38901    -0.38811    -0.38576    -0.38464    -0.37997
    -0.37701    -0.37697    -0.37381    -0.37240    -0.37082    -0.36697
    -0.36064    -0.36054    -0.35302    -0.35199    -0.35027    -0.34690
    -0.34442    -0.34260    -0.34040    -0.33976    -0.33672    -0.33577
    -0.33451    -0.32289    -0.32036    -0.31075    -0.30501    -0.30211
    -0.30142    -0.30101    -0.29988    -0.29828    -0.29675    -0.29657
    -0.29398    -0.29258    -0.29194    -0.29041    -0.28564    -0.28096
    -0.28017    -0.27874    -0.26883    -0.24992    -0.06393    -0.01663
    -0.01464     0.00176     0.00353     0.00994     0.01723     0.02023
     0.02363     0.02444
 
  Peak memory usage:   1028 Mb
  
  end of program scf
   
 Time(scf)  user:    35228.8  user+sys:    35228.8  wallclock:   111512.9
  
  start of program ch
  
  gridpoints used for charge fit        16487
    out of a possible maximum of        19052
  
   Electrostatic potential fitting constrained to reproduce
     total charge:                yes
     dipole moment:               no 
     traceless quadrupole moment: no 
     traceless octapole moment:   no 
  
  Atomic charges from electrostatic potential: 
   
 Atom       C1           C2           C3           C4           H5      
 Charge   -0.13384     -0.53618      0.29229     -0.04230      0.21874
   
 Atom       C6           C7           C8           C9           H10     
 Charge   -0.33364      0.01535      0.24355      0.02089      0.18593
   
 Atom       C11          C12          C13          C14          C15     
 Charge    0.05290      0.28377     -0.23356     -0.13764     -0.13471
   
 Atom       C16          H17          H18          H19          H20     
 Charge   -0.15217      0.14881      0.13691      0.14075      0.08971
   
 Atom       C21          C22          C23          C24          C25     
 Charge    0.07039      0.19103     -0.20423     -0.13145     -0.15225
   
 Atom       C26          H27          H28          H29          H30     
 Charge   -0.16684      0.14137      0.13911      0.13944      0.13492
   
 Atom       Si31         Si32         C33          C34          C35     
 Charge   -0.15794     -0.10182     -0.04955     -0.19272     -0.01449
   
 Atom       C36          C37          C38          H39          H40     
 Charge   -0.11066     -0.04159     -0.17321      0.07818      0.12304
   
 Atom       H41          H42          H43          C44          C45     
 Charge    0.08675      0.10378      0.13364     -0.14446     -0.15999
   
 Atom       C46          C47          C48          C49          H50     
 Charge   -0.09893      0.14019     -0.16254     -0.12183      0.12924
   
 Atom       H51          H52          H53          H54          C55     
 Charge    0.13083      0.11102      0.11954      0.12972     -0.13011
   
 Atom       C56          C57          C58          C59          C60     
 Charge   -0.16022     -0.13759      0.17607     -0.20431     -0.13139
   
 Atom       H61          H62          H63          H64          H65     
 Charge    0.13072      0.13870      0.11544      0.12202      0.13255
   
 Atom       C66          C67          C68          C69          C70     
 Charge   -0.11009     -0.17424     -0.07819      0.03803     -0.11620
   
 Atom       C71          H72          H73          H74          H75     
 Charge   -0.14844      0.12812      0.13980      0.09091      0.12223
   
 Atom       H76          C77          C78          C79          C80     
 Charge    0.13031     -0.12242     -0.14996     -0.16773      0.20897
   
 Atom       C81          C82          H83          H84          H85     
 Charge   -0.24776     -0.09517      0.10641      0.11042      0.12010
   
 Atom       H86          H87          C88          C89          C90     
 Charge    0.13200      0.12958     -0.08796     -0.19435     -0.08802
   
 Atom       C91          C92          C93          H94          H95     
 Charge    0.05349     -0.04368     -0.19793      0.12520      0.13898
   
 Atom       H96          H97          H98          O99          O100    
 Charge    0.11889      0.08814      0.13843     -0.15614     -0.39094
   
 Atom       P101         O102         N103         H104         C105    
 Charge    1.14666     -0.67289     -0.58775      0.56522     -0.36987
   
 Atom       C106         C107         C108         C109         C110    
 Charge   -0.09360     -0.21027     -0.03146      0.17892      0.05391
   
 Atom       C111         H112         H113         H114         H115    
 Charge   -0.27363      0.13189      0.13155      0.05472      0.07201
   
 Atom       H116         H117         N118         S119         O120    
 Charge    0.16487      0.15119     -0.70428      0.72221     -0.44623
   
 Atom       O121         C122         F123         F124         F125    
 Charge   -0.52331      0.36990     -0.12436     -0.10747     -0.08390
   
 Atom       C126         C127         C128         C129         N130    
 Charge    0.30612     -0.10046     -0.32861      0.18913     -0.32181
   
 Atom       H131         H132         H133         H134         H135    
 Charge    0.11166      0.22191      0.21641      0.15309      0.41531
   
 Atom       S136         O137         O138         C139         C140    
 Charge    0.62879     -0.46603     -0.41908     -0.45777      0.35645
   
 Atom       N141         C142         C143         C144         H145    
 Charge   -0.56175      0.58566     -0.45660      0.20581      0.19627
   
 Atom       H146         H147         H148    
 Charge    0.06679      0.19326      0.10551
  
  sum of atomic charges:     0.000000
   
 RMS Error   9.53E-04 hartrees
 
  Peak memory usage:    816 Mb
  
  end of program ch
   
 Time(ch)  user:       18.7  user+sys:       18.7  wallclock:       59.0
  
  start of program post
  
  Writing input files for PBF
  Peak memory usage:    759 Mb
  
  end of program post
   
 Time(post)  user:        0.9  user+sys:        0.9  wallclock:        3.6

  start of program pbf

Pbf Version 4.10

Molecular surface area:      843.36049   [A2]
Reaction field energy:       -19.60968   [kT]
  Peak memory usage: 720 Mb

  end of program pbf

 Time(pbf)  user:       14.8  user+sys:       14.9  wallclock:       38.8
  
  start of program solv
  
   number of surface charges from PBF   13044
   sum of surface charges     -0.00039
   
  nuclear repulsion energy.......   20788.063906562 hartrees
  Peak memory usage:    894 Mb
  
  end of program solv
   
 Time(solv)  user:       37.2  user+sys:       37.2  wallclock:      100.2
  
  start of program scf
  
 Energy computed with NOPS off.
  
       i  u  d  i  g                   
       t  p  i  c  r                                 RMS    maximum
       e  d  i  u  i                       energy  density   DIIS  
       r  t  s  t  d       total energy    change  change    error 
  
etot    1  N  N  1  U   -5575.61924191166           5.8E-05  1.2E-03
etot    2  N  Y  1  U   -5575.62013618058  8.9E-04  1.9E-05  9.7E-04
etot    3  N  Y  1  U   -5575.62048424607  3.5E-04  5.5E-06  3.8E-04
etot    4  N  Y  1  U   -5575.62055074121  6.6E-05  2.3E-06  7.5E-05
etot    5  N  N  1  U   -5575.62055621098  5.5E-06  0.0E+00  0.0E+00
  
  
 Energy components, in hartrees:
   (A)  Total zero-electron terms....   20791.26275926023
   (B)    Nuclear-nuclear............   20788.06390656237
   (C)    Nuclear-solvent............       3.19885269786
   (E)  Total one-electron terms.....  -49109.28568283933
   (F)    Electron-nuclear...........  -54642.16085884321
   (G)    Electron-solvent...........      -3.24192334486
   (H)    Kinetic....................    5536.11709934874
   (I)  Total two-electron terms.....   22742.40236736812
   (J)    Coulomb....................   23393.72394306125
   (K)    Exchange+Correlation.......    -651.32157569312
   (L)  Electronic energy............  -26366.88331547121  (E+I)
   (N)  Total quantum mech. energy...   -5575.62055621098  (A+L)
   (O)  Gas phase energy.............   -5575.57879956436
   (P)  Solution phase energy........   -5575.59902088748  (Q+R+S)
   (Q)    Total solute energy........   -5575.57748556399  (N-C-G)
   (R)    Total solvent energy.......      -0.02153532350  (C/2+G/2)
   (S)    Solute cavity energy.......       0.00000000000
   (U)  Reorganization energy........       0.00131400037  (Q-O)
   (V)  Solvation energy.............      -0.02022132312  (P-O)
  
 SCFE:  Solution phase energy: DFT(m06-2x)      -5575.59902088748 hartrees
        SCF iterations:   5
  
 
 HOMO energy:    -0.25361
 LUMO energy:    -0.05865
 
  Orbital energies (hartrees): 
   -90.16042   -90.15320   -78.21990   -67.01254   -67.00897   -25.29565
   -25.29275   -25.29145   -19.69800   -19.69463   -19.64358   -19.63896
   -19.62901   -19.62344   -19.61727   -14.84131   -14.78643   -14.78468
   -14.74465   -10.80849   -10.65698   -10.62994   -10.62675   -10.62600
   -10.62289   -10.62016   -10.60332   -10.60132   -10.58949   -10.58444
   -10.58057   -10.57701   -10.57394   -10.57208   -10.56661   -10.56581
   -10.56414   -10.56213   -10.55833   -10.55786   -10.55761   -10.55465
   -10.55385   -10.55379   -10.55337   -10.55290   -10.55270   -10.55240
   -10.55223   -10.55184   -10.55180   -10.55137   -10.55120   -10.55120
   -10.55096   -10.55037   -10.55036   -10.55029   -10.55018   -10.55009
   -10.54974   -10.54917   -10.54914   -10.54893   -10.54892   -10.54848
   -10.54818   -10.54803   -10.54802   -10.54793   -10.54776   -10.54744
   -10.54724   -10.54669   -10.54665   -10.54652   -10.54559   -10.54482
   -10.54353   -10.54214   -10.54088   -10.54008   -10.53869   -10.53746
   -10.53719   -10.53597   -10.53584   -10.53576   -10.53533   -10.53311
   -10.53106   -10.52653    -8.47104    -8.46208    -6.99883    -6.39289
    -6.39247    -6.39164    -6.38386    -6.38353    -6.38345    -5.54326
    -5.54027    -5.11720    -5.11645    -5.11483    -3.85299    -3.85288
    -3.85253    -3.85015    -3.84969    -3.84951    -1.46013    -1.37009
    -1.36755    -1.23486    -1.23415    -1.21559    -1.19202    -1.13311
    -1.12002    -1.10211    -1.10124    -1.07805    -1.03600    -0.99074
    -0.98044    -0.96602    -0.95677    -0.94763    -0.94646    -0.94393
    -0.94287    -0.94048    -0.93161    -0.92152    -0.91982    -0.91872
    -0.91135    -0.90091    -0.89028    -0.88032    -0.85330    -0.84887
    -0.84715    -0.84458    -0.84113    -0.83872    -0.83758    -0.83674
    -0.83607    -0.83454    -0.83294    -0.82968    -0.82943    -0.82868
    -0.82726    -0.82541    -0.82304    -0.82244    -0.81856    -0.80120
    -0.79607    -0.76421    -0.74871    -0.73283    -0.73249    -0.71354
    -0.70782    -0.70357    -0.69836    -0.69541    -0.69339    -0.69007
    -0.68635    -0.68546    -0.68295    -0.68203    -0.67931    -0.67619
    -0.67590    -0.67462    -0.67415    -0.67283    -0.67113    -0.66952
    -0.66447    -0.66375    -0.66270    -0.66193    -0.65604    -0.65145
    -0.64823    -0.64259    -0.63086    -0.62699    -0.60930    -0.60446
    -0.60174    -0.60102    -0.59685    -0.58322    -0.58236    -0.58201
    -0.58094    -0.58036    -0.57603    -0.57492    -0.57190    -0.56790
    -0.56611    -0.56297    -0.56283    -0.56059    -0.55772    -0.55119
    -0.54823    -0.54243    -0.54017    -0.53912    -0.53438    -0.53224
    -0.52919    -0.52909    -0.52705    -0.52461    -0.52320    -0.52230
    -0.51977    -0.51882    -0.51699    -0.51603    -0.51473    -0.51319
    -0.50944    -0.50764    -0.50446    -0.50355    -0.50328    -0.50181
    -0.50111    -0.50049    -0.49955    -0.49733    -0.49652    -0.49518
    -0.49281    -0.49107    -0.48974    -0.48846    -0.48685    -0.48535
    -0.48337    -0.48307    -0.48276    -0.48165    -0.48073    -0.47875
    -0.47809    -0.47645    -0.47116    -0.46972    -0.46528    -0.45691
    -0.45519    -0.45450    -0.45258    -0.45251    -0.45037    -0.44519
    -0.44446    -0.44200    -0.43863    -0.43378    -0.43088    -0.42821
    -0.42757    -0.42651    -0.42472    -0.42304    -0.42160    -0.42009
    -0.41851    -0.41260    -0.40984    -0.40569    -0.40373    -0.40326
    -0.40179    -0.39603    -0.39564    -0.39547    -0.39383    -0.39281
    -0.39266    -0.39093    -0.39034    -0.38750    -0.38739    -0.38301
    -0.38057    -0.38030    -0.37699    -0.37647    -0.37458    -0.37165
    -0.35987    -0.35816    -0.35695    -0.35405    -0.35308    -0.35003
    -0.34718    -0.34507    -0.34287    -0.34086    -0.33939    -0.33794
    -0.33740    -0.32649    -0.32229    -0.31478    -0.30644    -0.30488
    -0.30434    -0.30376    -0.30293    -0.30185    -0.29974    -0.29849
    -0.29608    -0.29429    -0.29381    -0.29300    -0.28907    -0.28507
    -0.28368    -0.28281    -0.27262    -0.25361    -0.05865    -0.02032
    -0.01423    -0.00006     0.00313     0.00692     0.01414     0.01744
     0.02056     0.02156
 
  Peak memory usage:   1029 Mb
  
  end of program scf
   
 Time(scf)  user:    10892.3  user+sys:    10892.3  wallclock:    34453.7
  
  start of program sole
  
    SCRF                   solvation energy
  iteration          Hartrees            kcal/mol
     0               0.0000000            0.0000
     1              -0.0202213          -12.6891
  
  solvation energy not yet converged... 
  
  Peak memory usage:    813 Mb
  
  end of program sole
   
 Time(sole)  user:        0.2  user+sys:        0.2  wallclock:        0.4
  
  start of program ch
  
  gridpoints used for charge fit        16487
    out of a possible maximum of        16487
  
   Electrostatic potential fitting constrained to reproduce
     total charge:                yes
     dipole moment:               no 
     traceless quadrupole moment: no 
     traceless octapole moment:   no 
  
  Atomic charges from electrostatic potential: 
   
 Atom       C1           C2           C3           C4           H5      
 Charge   -0.13634     -0.55081      0.30820     -0.05119      0.22660
   
 Atom       C6           C7           C8           C9           H10     
 Charge   -0.34742      0.03114      0.24052      0.02255      0.19128
   
 Atom       C11          C12          C13          C14          C15     
 Charge    0.05400      0.28655     -0.24343     -0.13959     -0.14377
   
 Atom       C16          H17          H18          H19          H20     
 Charge   -0.14885      0.15563      0.14418      0.14908      0.08999
   
 Atom       C21          C22          C23          C24          C25     
 Charge    0.07117      0.19272     -0.20983     -0.13881     -0.16041
   
 Atom       C26          H27          H28          H29          H30     
 Charge   -0.17393      0.14417      0.14774      0.14790      0.14143
   
 Atom       Si31         Si32         C33          C34          C35     
 Charge   -0.17081     -0.12214     -0.05471     -0.20348     -0.01951
   
 Atom       C36          C37          C38          H39          H40     
 Charge   -0.10997     -0.03992     -0.18189      0.08249      0.12866
   
 Atom       H41          H42          H43          C44          C45     
 Charge    0.09173      0.10532      0.13845     -0.15146     -0.16961
   
 Atom       C46          C47          C48          C49          H50     
 Charge   -0.09447      0.14461     -0.17407     -0.12617      0.13804
   
 Atom       H51          H52          H53          H54          C55     
 Charge    0.13861      0.11143      0.12158      0.13711     -0.13823
   
 Atom       C56          C57          C58          C59          C60     
 Charge   -0.16787     -0.14152      0.17410     -0.20743     -0.13820
   
 Atom       H61          H62          H63          H64          H65     
 Charge    0.13903      0.14681      0.11796      0.12419      0.14047
   
 Atom       C66          C67          C68          C69          C70     
 Charge   -0.11601     -0.18522     -0.07734      0.03638     -0.11682
   
 Atom       C71          H72          H73          H74          H75     
 Charge   -0.15607      0.13676      0.14902      0.08996      0.12367
   
 Atom       H76          C77          C78          C79          C80     
 Charge    0.13827     -0.13364     -0.15396     -0.17662      0.22015
   
 Atom       C81          C82          H83          H84          H85     
 Charge   -0.26185     -0.09777      0.11576      0.12030      0.12432
   
 Atom       H86          H87          C88          C89          C90     
 Charge    0.13463      0.13358     -0.09359     -0.20269     -0.09098
   
 Atom       C91          C92          C93          H94          H95     
 Charge    0.05759     -0.04149     -0.20697      0.13308      0.14570
   
 Atom       H96          H97          H98          O99          O100    
 Charge    0.11865      0.09033      0.14675     -0.14846     -0.38704
   
 Atom       P101         O102         N103         H104         C105    
 Charge    1.13531     -0.66747     -0.56328      0.57133     -0.43102
   
 Atom       C106         C107         C108         C109         C110    
 Charge   -0.09796     -0.21837     -0.03229      0.19545      0.05070
   
 Atom       C111         H112         H113         H114         H115    
 Charge   -0.28424      0.13925      0.13834      0.06289      0.07130
   
 Atom       H116         H117         N118         S119         O120    
 Charge    0.17237      0.16061     -0.69042      0.71624     -0.45656
   
 Atom       O121         C122         F123         F124         F125    
 Charge   -0.52230      0.36871     -0.12563     -0.10627     -0.08219
   
 Atom       C126         C127         C128         C129         N130    
 Charge    0.35022     -0.12805     -0.31860      0.18639     -0.34026
   
 Atom       H131         H132         H133         H134         H135    
 Charge    0.10319      0.23135      0.22817      0.16922      0.41999
   
 Atom       S136         O137         O138         C139         C140    
 Charge    0.63582     -0.48502     -0.43898     -0.46224      0.36743
   
 Atom       N141         C142         C143         C144         H145    
 Charge   -0.58880      0.59218     -0.46763      0.21327      0.20685
   
 Atom       H146         H147         H148    
 Charge    0.07445      0.19360      0.11494
  
  sum of atomic charges:     0.000000
   
 RMS Error   9.59E-04 hartrees
 
  Peak memory usage:    816 Mb
  
  end of program ch
   
 Time(ch)  user:       19.2  user+sys:       19.2  wallclock:       58.9
  
  start of program post
  
  Writing input files for PBF
  Peak memory usage:    759 Mb
  
  end of program post
   
 Time(post)  user:        0.8  user+sys:        0.8  wallclock:        3.4

  start of program pbf

Pbf Version 4.10

Molecular surface area:      843.36049   [A2]
Reaction field energy:       -22.65552   [kT]
  Peak memory usage: 720 Mb

  end of program pbf

 Time(pbf)  user:       14.7  user+sys:       14.8  wallclock:       47.8
  
  start of program solv
  
   number of surface charges from PBF   13044
   sum of surface charges     -0.00041
   
  nuclear repulsion energy.......   20788.063906562 hartrees
  Peak memory usage:    894 Mb
  
  end of program solv
   
 Time(solv)  user:       37.1  user+sys:       37.1  wallclock:      112.9
  
  start of program scf
  
 Energy computed with NOPS off.
  
       i  u  d  i  g                   
       t  p  i  c  r                                 RMS    maximum
       e  d  i  u  i                       energy  density   DIIS  
       r  t  s  t  d       total energy    change  change    error 
  
etot    1  N  N  1  U   -5575.62375313121           7.0E-06  1.5E-04
etot    2  N  N  1  U   -5575.62375662355  3.5E-06  0.0E+00  0.0E+00
  
  
 Energy components, in hartrees:
   (A)  Total zero-electron terms....   20791.60962584157
   (B)    Nuclear-nuclear............   20788.06390656237
   (C)    Nuclear-solvent............       3.54571927921
   (E)  Total one-electron terms.....  -49110.06028207339
   (F)    Electron-nuclear...........  -54642.59222337211
   (G)    Electron-solvent...........      -3.59240824197
   (H)    Kinetic....................    5536.12434954068
   (I)  Total two-electron terms.....   22742.82689960827
   (J)    Coulomb....................   23394.15002732572
   (K)    Exchange+Correlation.......    -651.32312771745
   (L)  Electronic energy............  -26367.23338246512  (E+I)
   (N)  Total quantum mech. energy...   -5575.62375662355  (A+L)
   (O)  Gas phase energy.............   -5575.57879956436
   (P)  Solution phase energy........   -5575.60041214217  (Q+R+S)
   (Q)    Total solute energy........   -5575.57706766079  (N-C-G)
   (R)    Total solvent energy.......      -0.02334448138  (C/2+G/2)
   (S)    Solute cavity energy.......       0.00000000000
   (U)  Reorganization energy........       0.00173190357  (Q-O)
   (V)  Solvation energy.............      -0.02161257781  (P-O)
  
 SCFE:  Solution phase energy: DFT(m06-2x)      -5575.60041214217 hartrees
        SCF iterations:   2
  
 
 HOMO energy:    -0.27464
 LUMO energy:    -0.05820
 
  Orbital energies (hartrees): 
   -56.78345   -54.26859   -49.25493   -47.46785   -46.94658   -42.50910
   -29.52210   -29.24595   -28.40368   -26.98188   -21.50603   -20.52689
   -20.49000   -20.03124   -19.39650   -19.24768   -18.25530   -18.24315
   -16.88428   -16.00940   -15.90908   -15.62066   -15.48361   -15.42555
   -14.95983   -14.41534   -14.37213   -14.02065   -12.91716   -12.76701
   -11.95388   -11.87680   -11.47488   -11.45527   -11.37757   -11.18667
   -11.09966   -11.02861   -11.01034   -10.82382   -10.80973   -10.77628
   -10.77435   -10.74603   -10.71969   -10.70513   -10.67962   -10.67540
   -10.65573   -10.62789   -10.61916   -10.61340   -10.59062   -10.58641
   -10.57131   -10.56521   -10.55543   -10.54716   -10.54708   -10.54647
   -10.53517   -10.52950   -10.52409   -10.51356   -10.50532   -10.49792
   -10.49496   -10.49315   -10.49314   -10.48130   -10.47912   -10.42049
   -10.41732   -10.38707   -10.35558   -10.34325   -10.34068   -10.34034
   -10.31333   -10.30443   -10.28373   -10.24994   -10.17603   -10.14353
   -10.14352   -10.14090   -10.09540   -10.06045   -10.02269   -10.02037
   -10.01713    -9.93532    -9.91159    -9.89878    -9.80648    -9.55129
    -9.25324    -9.18257    -8.90799    -8.51311    -7.11300    -7.10768
    -6.95121    -6.44232    -6.20073    -5.96475    -5.36452    -5.20846
    -4.68074    -4.40070    -4.02344    -3.98432    -1.47587    -1.30079
    -1.27705    -1.26360    -1.10113    -1.08877    -1.08364    -1.06449
    -1.02109    -0.96439    -0.95127    -0.94551    -0.94263    -0.93683
    -0.92827    -0.92568    -0.92082    -0.91056    -0.91035    -0.90822
    -0.89537    -0.88926    -0.88538    -0.87187    -0.87082    -0.86868
    -0.84160    -0.83068    -0.82948    -0.82108    -0.81920    -0.81201
    -0.80766    -0.80179    -0.79417    -0.79192    -0.78620    -0.78411
    -0.78205    -0.77823    -0.77756    -0.77751    -0.77567    -0.77451
    -0.77262    -0.77186    -0.77172    -0.76549    -0.76379    -0.75830
    -0.74188    -0.73877    -0.73805    -0.73420    -0.73324    -0.73208
    -0.72231    -0.71654    -0.71484    -0.71431    -0.71312    -0.70670
    -0.69645    -0.69362    -0.69258    -0.68871    -0.68841    -0.68463
    -0.67318    -0.66607    -0.66471    -0.65945    -0.65643    -0.65383
    -0.65350    -0.65073    -0.64564    -0.64406    -0.64371    -0.63589
    -0.63574    -0.63124    -0.62583    -0.62271    -0.61625    -0.61348
    -0.60968    -0.60335    -0.60201    -0.60136    -0.60056    -0.59655
    -0.59633    -0.59628    -0.59429    -0.59260    -0.58322    -0.58292
    -0.58063    -0.57993    -0.57622    -0.57566    -0.57363    -0.57120
    -0.57024    -0.56704    -0.56694    -0.56686    -0.56438    -0.56046
    -0.55926    -0.54972    -0.54838    -0.54629    -0.54068    -0.53996
    -0.53522    -0.53372    -0.53294    -0.53187    -0.53107    -0.53039
    -0.52917    -0.52462    -0.52340    -0.52129    -0.52077    -0.51953
    -0.51877    -0.51716    -0.51712    -0.51653    -0.51645    -0.51568
    -0.51239    -0.50971    -0.50895    -0.50811    -0.50794    -0.50434
    -0.50401    -0.50328    -0.50177    -0.49966    -0.49804    -0.49770
    -0.49644    -0.49644    -0.49569    -0.49524    -0.49454    -0.49313
    -0.49291    -0.49144    -0.49077    -0.48783    -0.48610    -0.48586
    -0.48480    -0.47980    -0.47883    -0.47726    -0.47635    -0.47568
    -0.47514    -0.47373    -0.46919    -0.46805    -0.46779    -0.46550
    -0.46512    -0.46278    -0.46012    -0.45991    -0.45646    -0.45592
    -0.45352    -0.45225    -0.45188    -0.45163    -0.44807    -0.44760
    -0.43908    -0.43399    -0.43307    -0.43089    -0.42990    -0.42922
    -0.42373    -0.42321    -0.42319    -0.42180    -0.42125    -0.42072
    -0.41928    -0.41865    -0.41805    -0.41694    -0.41532    -0.41491
    -0.40925    -0.40742    -0.40724    -0.40683    -0.40560    -0.38583
    -0.38297    -0.37489    -0.36300    -0.35878    -0.35835    -0.35596
    -0.34678    -0.31946    -0.31833    -0.31515    -0.31300    -0.31195
    -0.30978    -0.30764    -0.30564    -0.30306    -0.30288    -0.30278
    -0.30004    -0.29790    -0.29038    -0.27464    -0.05820    -0.02021
    -0.01387     0.00002     0.00340     0.00706     0.01415     0.01748
     0.02055     0.02165
 
  Peak memory usage:   1029 Mb
  
  end of program scf
   
 Time(scf)  user:     2740.5  user+sys:     2740.5  wallclock:     8698.7
  
  start of program sole
  
    SCRF                   solvation energy
  iteration          Hartrees            kcal/mol
     0               0.0000000            0.0000
     1              -0.0202213          -12.6891
     2              -0.0216126          -13.5621
  
  solvation energy not yet converged... 
  
  Peak memory usage:    813 Mb
  
  end of program sole
   
 Time(sole)  user:        0.2  user+sys:        0.2  wallclock:        0.5
  
  start of program ch
  
  gridpoints used for charge fit        16487
    out of a possible maximum of        16487
  
   Electrostatic potential fitting constrained to reproduce
     total charge:                yes
     dipole moment:               no 
     traceless quadrupole moment: no 
     traceless octapole moment:   no 
  
  Atomic charges from electrostatic potential: 
   
 Atom       C1           C2           C3           C4           H5      
 Charge   -0.13715     -0.55106      0.30869     -0.05297      0.22724
   
 Atom       C6           C7           C8           C9           H10     
 Charge   -0.34797      0.03158      0.24110      0.02089      0.19162
   
 Atom       C11          C12          C13          C14          C15     
 Charge    0.05436      0.28702     -0.24416     -0.13861     -0.14276
   
 Atom       C16          H17          H18          H19          H20     
 Charge   -0.14984      0.15603      0.14473      0.14957      0.08996
   
 Atom       C21          C22          C23          C24          C25     
 Charge    0.07101      0.19260     -0.21114     -0.13791     -0.15989
   
 Atom       C26          H27          H28          H29          H30     
 Charge   -0.17455      0.14425      0.14827      0.14845      0.14176
   
 Atom       Si31         Si32         C33          C34          C35     
 Charge   -0.17173     -0.12428     -0.05428     -0.20487     -0.01933
   
 Atom       C36          C37          C38          H39          H40     
 Charge   -0.11055     -0.04042     -0.18178      0.08296      0.12895
   
 Atom       H41          H42          H43          C44          C45     
 Charge    0.09163      0.10536      0.13866     -0.15091     -0.16935
   
 Atom       C46          C47          C48          C49          H50     
 Charge   -0.09481      0.14408     -0.17683     -0.12498      0.13885
   
 Atom       H51          H52          H53          H54          C55     
 Charge    0.13907      0.11139      0.12188      0.13758     -0.13791
   
 Atom       C56          C57          C58          C59          C60     
 Charge   -0.16835     -0.14191      0.17310     -0.20819     -0.13776
   
 Atom       H61          H62          H63          H64          H65     
 Charge    0.13959      0.14734      0.11788      0.12439      0.14100
   
 Atom       C66          C67          C68          C69          C70     
 Charge   -0.11541     -0.18578     -0.07629      0.03464     -0.11786
   
 Atom       C71          H72          H73          H74          H75     
 Charge   -0.15588      0.13742      0.14975      0.08930      0.12365
   
 Atom       H76          C77          C78          C79          C80     
 Charge    0.13880     -0.13416     -0.15210     -0.17710      0.22004
   
 Atom       C81          C82          H83          H84          H85     
 Charge   -0.26422     -0.09798      0.11671      0.12129      0.12490
   
 Atom       H86          H87          C88          C89          C90     
 Charge    0.13451      0.13349     -0.09291     -0.20339     -0.09172
   
 Atom       C91          C92          C93          H94          H95     
 Charge    0.05762     -0.04146     -0.20673      0.13364      0.14610
   
 Atom       H96          H97          H98          O99          O100    
 Charge    0.11832      0.09035      0.14741     -0.14780     -0.38610
   
 Atom       P101         O102         N103         H104         C105    
 Charge    1.13281     -0.66582     -0.55916      0.57129     -0.43616
   
 Atom       C106         C107         C108         C109         C110    
 Charge   -0.09687     -0.21695     -0.03209      0.19576      0.04777
   
 Atom       C111         H112         H113         H114         H115    
 Charge   -0.28462      0.13965      0.13891      0.06387      0.07140
   
 Atom       H116         H117         N118         S119         O120    
 Charge    0.17261      0.16058     -0.68954      0.71559     -0.45736
   
 Atom       O121         C122         F123         F124         F125    
 Charge   -0.52141      0.36864     -0.12566     -0.10630     -0.08213
   
 Atom       C126         C127         C128         C129         N130    
 Charge    0.35599     -0.13452     -0.31409      0.18869     -0.34423
   
 Atom       H131         H132         H133         H134         H135    
 Charge    0.10168      0.23179      0.22906      0.17046      0.42087
   
 Atom       S136         O137         O138         C139         C140    
 Charge    0.63214     -0.48479     -0.44023     -0.45963      0.36798
   
 Atom       N141         C142         C143         C144         H145    
 Charge   -0.59227      0.58963     -0.46853      0.21508      0.20793
   
 Atom       H146         H147         H148    
 Charge    0.07536      0.19343      0.11577
  
  sum of atomic charges:     0.000000
   
 RMS Error   9.60E-04 hartrees
 
  Peak memory usage:    816 Mb
  
  end of program ch
   
 Time(ch)  user:       19.4  user+sys:       19.4  wallclock:       56.7
  
  start of program post
  
  Writing input files for PBF
  Peak memory usage:    759 Mb
  
  end of program post
   
 Time(post)  user:        0.9  user+sys:        0.9  wallclock:        3.9

  start of program pbf

Pbf Version 4.10

Molecular surface area:      843.36049   [A2]
Reaction field energy:       -23.11009   [kT]
  Peak memory usage: 720 Mb

  end of program pbf

 Time(pbf)  user:       15.6  user+sys:       15.8  wallclock:       42.9
  
  start of program solv
  
   number of surface charges from PBF   13044
   sum of surface charges     -0.00042
   
  nuclear repulsion energy.......   20788.063906562 hartrees
  Peak memory usage:    894 Mb
  
  end of program solv
   
 Time(solv)  user:       37.1  user+sys:       37.1  wallclock:      105.6
  
  start of program scf
  
 Energy computed with NOPS off.
  
       i  u  d  i  g                   
       t  p  i  c  r                                 RMS    maximum
       e  d  i  u  i                       energy  density   DIIS  
       r  t  s  t  d       total energy    change  change    error 
  
etot    1  N  N  1  U   -5575.62420605238           6.0E-06  1.3E-04
etot    2  N  N  1  U   -5575.62418904206 -1.7E-05  0.0E+00  0.0E+00
  
  
 Energy components, in hartrees:
   (A)  Total zero-electron terms....   20791.68038601732
   (B)    Nuclear-nuclear............   20788.06390656237
   (C)    Nuclear-solvent............       3.61647945496
   (E)  Total one-electron terms.....  -49109.70264949607
   (F)    Electron-nuclear...........  -54642.15118335433
   (G)    Electron-solvent...........      -3.66343055842
   (H)    Kinetic....................    5536.11196441668
   (I)  Total two-electron terms.....   22742.39807443670
   (J)    Coulomb....................   23393.72027570804
   (K)    Exchange+Correlation.......    -651.32220127135
   (L)  Electronic energy............  -26367.30457505938  (E+I)
   (N)  Total quantum mech. energy...   -5575.62418904206  (A+L)
   (O)  Gas phase energy.............   -5575.57879956436
   (P)  Solution phase energy........   -5575.60071349032  (Q+R+S)
   (Q)    Total solute energy........   -5575.57723793859  (N-C-G)
   (R)    Total solvent energy.......      -0.02347555173  (C/2+G/2)
   (S)    Solute cavity energy.......       0.00000000000
   (U)  Reorganization energy........       0.00156162577  (Q-O)
   (V)  Solvation energy.............      -0.02191392596  (P-O)
  
 SCFE:  Solution phase energy: DFT(m06-2x)      -5575.60071349032 hartrees
        SCF iterations:   2
  
 
 HOMO energy:    -0.25430
 LUMO energy:    -0.05839
 
  Orbital energies (hartrees): 
   -90.16248   -90.15441   -78.22085   -67.01372   -67.01002   -25.29681
   -25.29360   -25.29257   -19.69959   -19.69523   -19.64582   -19.63957
   -19.62949   -19.62498   -19.61674   -14.84147   -14.78882   -14.78657
   -14.74584   -10.80958   -10.65490   -10.63148   -10.62833   -10.62828
   -10.62408   -10.62143   -10.60292   -10.60246   -10.58755   -10.58324
   -10.58119   -10.57530   -10.57524   -10.57305   -10.56803   -10.56747
   -10.56569   -10.56221   -10.55927   -10.55849   -10.55812   -10.55441
   -10.55413   -10.55371   -10.55364   -10.55361   -10.55307   -10.55278
   -10.55210   -10.55208   -10.55171   -10.55166   -10.55110   -10.55094
   -10.55092   -10.55080   -10.55014   -10.54973   -10.54972   -10.54958
   -10.54957   -10.54940   -10.54936   -10.54926   -10.54863   -10.54848
   -10.54846   -10.54845   -10.54825   -10.54794   -10.54754   -10.54742
   -10.54729   -10.54725   -10.54720   -10.54669   -10.54649   -10.54608
   -10.54483   -10.54350   -10.54202   -10.54120   -10.54028   -10.53807
   -10.53804   -10.53694   -10.53681   -10.53673   -10.53656   -10.53422
   -10.53260   -10.52790    -8.47305    -8.46327    -6.99976    -6.39490
    -6.39449    -6.39365    -6.38505    -6.38472    -6.38464    -5.54442
    -5.54132    -5.11813    -5.11738    -5.11576    -3.85415    -3.85404
    -3.85370    -3.85119    -3.85074    -3.85056    -1.46121    -1.37121
    -1.36858    -1.23609    -1.23574    -1.21667    -1.19314    -1.13287
    -1.12170    -1.10315    -1.10149    -1.07921    -1.03751    -0.99177
    -0.98132    -0.96673    -0.95718    -0.94817    -0.94666    -0.94435
    -0.94316    -0.94089    -0.93256    -0.92201    -0.91966    -0.91862
    -0.91192    -0.90135    -0.89107    -0.88064    -0.85391    -0.84907
    -0.84774    -0.84510    -0.84168    -0.83927    -0.83778    -0.83708
    -0.83654    -0.83469    -0.83343    -0.83017    -0.82996    -0.82931
    -0.82793    -0.82587    -0.82371    -0.82333    -0.81944    -0.80185
    -0.79674    -0.76511    -0.74920    -0.73341    -0.73300    -0.71385
    -0.70844    -0.70398    -0.69905    -0.69568    -0.69373    -0.69079
    -0.68738    -0.68634    -0.68314    -0.68258    -0.67952    -0.67661
    -0.67651    -0.67489    -0.67442    -0.67317    -0.67149    -0.66996
    -0.66486    -0.66403    -0.66355    -0.66241    -0.65679    -0.65213
    -0.64868    -0.64342    -0.63163    -0.62773    -0.60986    -0.60499
    -0.60256    -0.60171    -0.59755    -0.58360    -0.58295    -0.58243
    -0.58124    -0.58084    -0.57647    -0.57544    -0.57254    -0.56809
    -0.56666    -0.56370    -0.56347    -0.56115    -0.55854    -0.55182
    -0.54861    -0.54307    -0.54064    -0.53967    -0.53504    -0.53297
    -0.53008    -0.52957    -0.52779    -0.52518    -0.52399    -0.52322
    -0.52012    -0.51918    -0.51746    -0.51667    -0.51540    -0.51367
    -0.51004    -0.50831    -0.50498    -0.50427    -0.50360    -0.50230
    -0.50161    -0.50058    -0.49986    -0.49795    -0.49705    -0.49567
    -0.49308    -0.49163    -0.49017    -0.48926    -0.48680    -0.48584
    -0.48352    -0.48328    -0.48298    -0.48196    -0.48129    -0.47913
    -0.47859    -0.47669    -0.47200    -0.47037    -0.46582    -0.45735
    -0.45568    -0.45441    -0.45305    -0.45287    -0.45079    -0.44558
    -0.44469    -0.44261    -0.43929    -0.43422    -0.43164    -0.42892
    -0.42811    -0.42700    -0.42520    -0.42347    -0.42203    -0.42057
    -0.41926    -0.41339    -0.41066    -0.40658    -0.40439    -0.40388
    -0.40220    -0.39680    -0.39630    -0.39600    -0.39419    -0.39308
    -0.39303    -0.39128    -0.39085    -0.38811    -0.38795    -0.38377
    -0.38151    -0.38124    -0.37802    -0.37719    -0.37535    -0.37256
    -0.36012    -0.35871    -0.35786    -0.35463    -0.35349    -0.35083
    -0.34803    -0.34573    -0.34361    -0.34168    -0.34021    -0.33888
    -0.33820    -0.32732    -0.32322    -0.31574    -0.30669    -0.30545
    -0.30489    -0.30420    -0.30336    -0.30229    -0.30028    -0.29889
    -0.29650    -0.29483    -0.29404    -0.29358    -0.28974    -0.28600
    -0.28449    -0.28376    -0.27330    -0.25430    -0.05839    -0.02093
    -0.01476    -0.00084     0.00291     0.00633     0.01346     0.01690
     0.01989     0.02094
 
  Peak memory usage:   1029 Mb
  
  end of program scf
   
 Time(scf)  user:     2734.7  user+sys:     2734.7  wallclock:     8781.8
  
  start of program sole
  
    SCRF                   solvation energy
  iteration          Hartrees            kcal/mol
     0               0.0000000            0.0000
     1              -0.0202213          -12.6891
     2              -0.0216126          -13.5621
     3              -0.0219139          -13.7512
  
  solvation energy not yet converged... 
  
  Peak memory usage:    813 Mb
  
  end of program sole
   
 Time(sole)  user:        0.2  user+sys:        0.2  wallclock:        1.0
  
  start of program ch
  
  gridpoints used for charge fit        16487
    out of a possible maximum of        16487
  
   Electrostatic potential fitting constrained to reproduce
     total charge:                yes
     dipole moment:               no 
     traceless quadrupole moment: no 
     traceless octapole moment:   no 
  
  Atomic charges from electrostatic potential: 
   
 Atom       C1           C2           C3           C4           H5      
 Charge   -0.13545     -0.55250      0.30935     -0.05103      0.22697
   
 Atom       C6           C7           C8           C9           H10     
 Charge   -0.34922      0.03355      0.24077      0.02302      0.19132
   
 Atom       C11          C12          C13          C14          C15     
 Charge    0.05310      0.28657     -0.24449     -0.13972     -0.14575
   
 Atom       C16          H17          H18          H19          H20     
 Charge   -0.14703      0.15614      0.14509      0.15007      0.08935
   
 Atom       C21          C22          C23          C24          C25     
 Charge    0.07103      0.19365     -0.20953     -0.14020     -0.16147
   
 Atom       C26          H27          H28          H29          H30     
 Charge   -0.17442      0.14402      0.14853      0.14870      0.14171
   
 Atom       Si31         Si32         C33          C34          C35     
 Charge   -0.17115     -0.12409     -0.05518     -0.20445     -0.02004
   
 Atom       C36          C37          C38          H39          H40     
 Charge   -0.10940     -0.03929     -0.18348      0.08280      0.12901
   
 Atom       H41          H42          H43          C44          C45     
 Charge    0.09189      0.10518      0.13870     -0.15289     -0.16987
   
 Atom       C46          C47          C48          C49          H50     
 Charge   -0.09494      0.14644     -0.17464     -0.12668      0.13925
   
 Atom       H51          H52          H53          H54          C55     
 Charge    0.13920      0.11112      0.12135      0.13773     -0.13884
   
 Atom       C56          C57          C58          C59          C60     
 Charge   -0.16867     -0.14107      0.17374     -0.20696     -0.13924
   
 Atom       H61          H62          H63          H64          H65     
 Charge    0.13977      0.14740      0.11747      0.12392      0.14120
   
 Atom       C66          C67          C68          C69          C70     
 Charge   -0.11647     -0.18656     -0.07746      0.03697     -0.11552
   
 Atom       C71          H72          H73          H74          H75     
 Charge   -0.15752      0.13762      0.14986      0.08946      0.12322
   
 Atom       H76          C77          C78          C79          C80     
 Charge    0.13894     -0.13461     -0.15469     -0.17869      0.22285
   
 Atom       C81          C82          H83          H84          H85     
 Charge   -0.26216     -0.09806      0.11671      0.12162      0.12475
   
 Atom       H86          H87          C88          C89          C90     
 Charge    0.13416      0.13336     -0.09428     -0.20315     -0.09059
   
 Atom       C91          C92          C93          H94          H95     
 Charge    0.05781     -0.04079     -0.20817      0.13390      0.14601
   
 Atom       H96          H97          H98          O99          O100    
 Charge    0.11802      0.09013      0.14766     -0.14732     -0.38711
   
 Atom       P101         O102         N103         H104         C105    
 Charge    1.13439     -0.66748     -0.55875      0.57126     -0.43163
   
 Atom       C106         C107         C108         C109         C110    
 Charge   -0.09900     -0.21950     -0.03355      0.19814      0.05032
   
 Atom       C111         H112         H113         H114         H115    
 Charge   -0.28467      0.14011      0.13905      0.06362      0.07103
   
 Atom       H116         H117         N118         S119         O120    
 Charge    0.17254      0.15954     -0.68868      0.71494     -0.45675
   
 Atom       O121         C122         F123         F124         F125    
 Charge   -0.52218      0.36861     -0.12607     -0.10607     -0.08217
   
 Atom       C126         C127         C128         C129         N130    
 Charge    0.35696     -0.12942     -0.31930      0.18470     -0.34300
   
 Atom       H131         H132         H133         H134         H135    
 Charge    0.10146      0.23107      0.23010      0.17120      0.42044
   
 Atom       S136         O137         O138         C139         C140    
 Charge    0.63476     -0.48742     -0.44112     -0.46329      0.36766
   
 Atom       N141         C142         C143         C144         H145    
 Charge   -0.59033      0.59354     -0.46925      0.21331      0.20864
   
 Atom       H146         H147         H148    
 Charge    0.07531      0.19345      0.11618
  
  sum of atomic charges:     0.000000
   
 RMS Error   9.62E-04 hartrees
 
  Peak memory usage:    816 Mb
  
  end of program ch
   
 Time(ch)  user:       18.9  user+sys:       18.9  wallclock:       69.2
  
  start of program post
  
  Writing input files for PBF
  Peak memory usage:    759 Mb
  
  end of program post
   
 Time(post)  user:        0.8  user+sys:        0.8  wallclock:        3.4

  start of program pbf

Pbf Version 4.10

Molecular surface area:      843.36049   [A2]
Reaction field energy:       -22.92989   [kT]
  Peak memory usage: 720 Mb

  end of program pbf

 Time(pbf)  user:       15.4  user+sys:       15.5  wallclock:       48.5
  
  start of program solv
  
   number of surface charges from PBF   13044
   sum of surface charges     -0.00041
   
  nuclear repulsion energy.......   20788.063906562 hartrees
  Peak memory usage:    894 Mb
  
  end of program solv
   
 Time(solv)  user:       36.8  user+sys:       36.8  wallclock:      100.6
  
  start of program scf
  
 Energy computed with NOPS off.
  
       i  u  d  i  g                   
       t  p  i  c  r                                 RMS    maximum
       e  d  i  u  i                       energy  density   DIIS  
       r  t  s  t  d       total energy    change  change    error 
  
etot    1  N  N  1  U   -5575.62402056252           8.7E-06  1.9E-04
etot    2  N  Y  1  U   -5575.62396821806 -5.2E-05  5.6E-06  3.2E-04
etot    3  N  Y  1  U   -5575.62404621107  7.8E-05  2.4E-07  1.2E-05
etot    4  N  N  1  U   -5575.62404625689  4.6E-08  0.0E+00  0.0E+00
  
  
 Energy components, in hartrees:
   (A)  Total zero-electron terms....   20791.63684576978
   (B)    Nuclear-nuclear............   20788.06390656237
   (C)    Nuclear-solvent............       3.57293920741
   (E)  Total one-electron terms.....  -49109.90584818836
   (F)    Electron-nuclear...........  -54642.40268013661
   (G)    Electron-solvent...........      -3.61982104073
   (H)    Kinetic....................    5536.11665298897
   (I)  Total two-electron terms.....   22742.64495616170
   (J)    Coulomb....................   23393.96738615660
   (K)    Exchange+Correlation.......    -651.32242999491
   (L)  Electronic energy............  -26367.26089202666  (E+I)
   (N)  Total quantum mech. energy...   -5575.62404625689  (A+L)
   (O)  Gas phase energy.............   -5575.57879956436
   (P)  Solution phase energy........   -5575.60060534023  (Q+R+S)
   (Q)    Total solute energy........   -5575.57716442357  (N-C-G)
   (R)    Total solvent energy.......      -0.02344091666  (C/2+G/2)
   (S)    Solute cavity energy.......       0.00000000000
   (U)  Reorganization energy........       0.00163514080  (Q-O)
   (V)  Solvation energy.............      -0.02180577587  (P-O)
  
 SCFE:  Solution phase energy: DFT(m06-2x)      -5575.60060534023 hartrees
        SCF iterations:   4
  
 
 HOMO energy:    -0.25380
 LUMO energy:    -0.05823
 
  Orbital energies (hartrees): 
   -90.16094   -90.15365   -78.21989   -67.01269   -67.00905   -25.29613
   -25.29351   -25.29211   -19.69787   -19.69482   -19.64473   -19.64057
   -19.62968   -19.62384   -19.61746   -14.84083   -14.78638   -14.78473
   -14.74478   -10.80908   -10.65633   -10.62983   -10.62654   -10.62625
   -10.62272   -10.62026   -10.60295   -10.60095   -10.58886   -10.58415
   -10.58085   -10.57647   -10.57385   -10.57222   -10.56679   -10.56573
   -10.56385   -10.56259   -10.55880   -10.55828   -10.55804   -10.55475
   -10.55404   -10.55389   -10.55352   -10.55345   -10.55256   -10.55247
   -10.55232   -10.55224   -10.55205   -10.55162   -10.55150   -10.55137
   -10.55110   -10.55063   -10.55050   -10.55048   -10.55029   -10.55016
   -10.54987   -10.54957   -10.54940   -10.54934   -10.54922   -10.54880
   -10.54834   -10.54824   -10.54816   -10.54806   -10.54774   -10.54768
   -10.54766   -10.54714   -10.54673   -10.54659   -10.54561   -10.54508
   -10.54383   -10.54234   -10.54096   -10.54035   -10.53901   -10.53796
   -10.53761   -10.53646   -10.53625   -10.53602   -10.53522   -10.53345
   -10.53115   -10.52674    -8.47160    -8.46252    -6.99884    -6.39344
    -6.39303    -6.39218    -6.38430    -6.38397    -6.38389    -5.54342
    -5.54036    -5.11721    -5.11646    -5.11484    -3.85315    -3.85304
    -3.85269    -3.85023    -3.84978    -3.84960    -1.46077    -1.37068
    -1.36824    -1.23520    -1.23481    -1.21602    -1.19207    -1.13271
    -1.12108    -1.10258    -1.10129    -1.07808    -1.03619    -0.99096
    -0.98066    -0.96632    -0.95680    -0.94794    -0.94654    -0.94420
    -0.94307    -0.94065    -0.93200    -0.92169    -0.91967    -0.91837
    -0.91158    -0.90082    -0.89051    -0.88019    -0.85353    -0.84872
    -0.84735    -0.84483    -0.84134    -0.83905    -0.83760    -0.83694
    -0.83637    -0.83457    -0.83313    -0.82989    -0.82971    -0.82896
    -0.82756    -0.82560    -0.82332    -0.82281    -0.81889    -0.80140
    -0.79613    -0.76451    -0.74867    -0.73293    -0.73257    -0.71346
    -0.70791    -0.70359    -0.69858    -0.69530    -0.69329    -0.69034
    -0.68692    -0.68597    -0.68286    -0.68231    -0.67938    -0.67636
    -0.67611    -0.67473    -0.67424    -0.67295    -0.67123    -0.66965
    -0.66466    -0.66388    -0.66305    -0.66214    -0.65632    -0.65166
    -0.64825    -0.64275    -0.63096    -0.62718    -0.60949    -0.60464
    -0.60206    -0.60123    -0.59698    -0.58335    -0.58258    -0.58215
    -0.58110    -0.58054    -0.57618    -0.57500    -0.57211    -0.56781
    -0.56627    -0.56334    -0.56315    -0.56083    -0.55812    -0.55136
    -0.54815    -0.54260    -0.54022    -0.53921    -0.53461    -0.53250
    -0.52959    -0.52917    -0.52738    -0.52482    -0.52361    -0.52277
    -0.51996    -0.51898    -0.51720    -0.51627    -0.51493    -0.51336
    -0.50969    -0.50792    -0.50474    -0.50393    -0.50346    -0.50201
    -0.50134    -0.50038    -0.49960    -0.49747    -0.49669    -0.49536
    -0.49289    -0.49131    -0.48974    -0.48877    -0.48665    -0.48563
    -0.48341    -0.48314    -0.48283    -0.48173    -0.48099    -0.47876
    -0.47828    -0.47645    -0.47148    -0.46999    -0.46540    -0.45708
    -0.45534    -0.45436    -0.45267    -0.45254    -0.45055    -0.44529
    -0.44439    -0.44226    -0.43877    -0.43398    -0.43118    -0.42857
    -0.42779    -0.42676    -0.42497    -0.42327    -0.42183    -0.42027
    -0.41884    -0.41291    -0.41013    -0.40618    -0.40401    -0.40348
    -0.40198    -0.39638    -0.39601    -0.39566    -0.39405    -0.39294
    -0.39282    -0.39107    -0.39053    -0.38773    -0.38759    -0.38331
    -0.38096    -0.38064    -0.37748    -0.37677    -0.37493    -0.37210
    -0.35984    -0.35827    -0.35726    -0.35411    -0.35306    -0.35022
    -0.34739    -0.34522    -0.34308    -0.34098    -0.33960    -0.33815
    -0.33760    -0.32677    -0.32249    -0.31509    -0.30652    -0.30515
    -0.30469    -0.30396    -0.30318    -0.30216    -0.30002    -0.29857
    -0.29616    -0.29451    -0.29386    -0.29322    -0.28924    -0.28545
    -0.28397    -0.28317    -0.27290    -0.25380    -0.05823    -0.02052
    -0.01425    -0.00035     0.00319     0.00677     0.01386     0.01724
     0.02028     0.02137
 
  Peak memory usage:   1029 Mb
  
  end of program scf
   
 Time(scf)  user:     8065.7  user+sys:     8065.7  wallclock:    20614.7
  
  start of program sole
  
    SCRF                   solvation energy
  iteration          Hartrees            kcal/mol
     0               0.0000000            0.0000
     1              -0.0202213          -12.6891
     2              -0.0216126          -13.5621
     3              -0.0219139          -13.7512
     4              -0.0218058          -13.6833
  
  stopping: solvation energy converged
  
  iterations:   4    sfinal:    -13.6833 kcal/mol
  
  Peak memory usage:    813 Mb
  
  end of program sole
   
 Time(sole)  user:        0.2  user+sys:        0.2  wallclock:        0.4
  
  start of program post
  
  Writing input files for PBF
  Peak memory usage:    759 Mb
  
  end of program post
   
 Time(post)  user:        0.8  user+sys:        0.8  wallclock:        2.1

 Total cpu seconds     user:   61109.606   user+sys:   61109.606
  
 Total elapsed time:    187602 seconds

Job Type-II-Z-sulfonyl-bind-4-chkp-2-scan-unrestrained-IRC-min-disp-SPE completed on tethys at Sun Mar 26 18:30:10 2017
