Command:    jaguar run jexec.py -jobname Toru-SiPh3-Type-I-E-2-chkp4-unrestrained-SPE -nsubjobs 1 Toru-SiPh3-Type-I-E-2-chkp4-unrestrained-SPE.in
[running at reduced cpu priority]
Release:    2017-1
Exec:       /usr/local/shared/schrodinger/current/jaguar-v9.5/bin/Linux-x86_64
Host:       tethys
JobId:      tethys-0-58e62069
JobDir:     /scratch/ab2144/Toru-SiPh3-Type-I-E-2-chkp4-unrestrained-SPE
Date:       Thu Apr  6 12:03:07 2017

Contents of /scratch/ab2144/Toru-SiPh3-Type-I-E-2-chkp4-unrestrained-SPE:
/scratch/ab2144/Toru-SiPh3-Type-I-E-2-chkp4-unrestrained-SPE/tethys-0-58e62069.nodes
/scratch/ab2144/Toru-SiPh3-Type-I-E-2-chkp4-unrestrained-SPE/Toru-SiPh3-Type-I-E-2-chkp4-unrestrained-SPE.in
/scratch/ab2144/Toru-SiPh3-Type-I-E-2-chkp4-unrestrained-SPE/Toru-SiPh3-Type-I-E-2-chkp4-unrestrained-SPE.recover
/scratch/ab2144/Toru-SiPh3-Type-I-E-2-chkp4-unrestrained-SPE/tethys-0-58e62069.recover
/scratch/ab2144/Toru-SiPh3-Type-I-E-2-chkp4-unrestrained-SPE/tethys-0-58e62069
/scratch/ab2144/Toru-SiPh3-Type-I-E-2-chkp4-unrestrained-SPE/Toru-SiPh3-Type-I-E-2-chkp4-unrestrained-SPE.log
/scratch/ab2144/Toru-SiPh3-Type-I-E-2-chkp4-unrestrained-SPE/Toru-SiPh3-Type-I-E-2-chkp4-unrestrained-SPE.mae

Executing subprocess:
/usr/local/shared/schrodinger/current/jaguar-v9.5/bin/Linux-x86_64/jexec Toru-SiPh3-Type-I-E-2-chkp4-unrestrained-SPE.in -cwd -out /scratch/ab2144/Toru-SiPh3-Type-I-E-2-chkp4-unrestrained-SPE

[running at reduced cpu priority]
[running at reduced cpu priority]
Job Toru-SiPh3-Type-I-E-2-chkp4-unrestrained-SPE started on tethys at Thu Apr  6 12:03:07 2017
jobid: tethys-0-58e62069 
Jaguar version 9.5, release  11
Molecular Point Group: C1      
Point Group used: C1
pre (input checking) done.
onee (1-electron integrals) done.
hfig (HF initial guess) done.
probe (project orbitals) done.
grid (grid generation) done.
rwr (Q operators) done.
scf type: DFT=M06-2X
  
       i  u  d  i  g
       t  p  i  c  r                                 RMS    maximum
       e  d  i  u  i                       energy  density   DIIS  
       r  t  s  t  d       total energy    change  change    error 
  
etot    1  N  N  1  U   -4700.09805412039           2.2E-03  1.2E-01
etot    2  N  Y  1  U   -4707.34748138749  7.2E+00  1.8E-03  7.0E-02
etot    3  N  Y  1  U   -4707.76689237799  4.2E-01  1.2E-03  7.6E-02
etot    4  N  Y  1  U   -4709.93295011077  2.2E+00  3.9E-04  1.8E-02
etot    5  N  Y  1  U   -4709.98436717717  5.1E-02  2.1E-04  1.3E-02
etot    6  N  Y  1  U   -4710.04627316356  6.2E-02  6.1E-05  3.4E-03
etot    7  N  Y  1  U   -4710.05071902599  4.4E-03  1.6E-05  7.9E-04
etot    8  N  Y  1  U   -4710.05107477221  3.6E-04  6.3E-06  1.9E-04
etot    9  N  N  1  U   -4710.05111908562  4.4E-05  0.0E+00  0.0E+00
scf (DFT) done.
--------gas phase calculation complete----------------------
ch (properties) done.
post (output conversion) done.
pbf (Poisson-Boltzmann solver) done.
solv (solvation checking) done.
  
       i  u  d  i  g
       t  p  i  c  r                                 RMS    maximum
       e  d  i  u  i                       energy  density   DIIS  
       r  t  s  t  d       total energy    change  change    error 
  
etot    1  N  N  1  U   -4710.08508940678           5.7E-05  8.6E-04
etot    2  N  Y  1  U   -4710.08581449119  7.3E-04  1.9E-05  8.0E-04
etot    3  N  Y  1  U   -4710.08611431623  3.0E-04  6.3E-06  3.6E-04
etot    4  N  Y  1  U   -4710.08616665136  5.2E-05  2.7E-06  8.6E-05
etot    5  N  N  1  U   -4710.08617368338  7.0E-06  0.0E+00  0.0E+00
scf (DFT) done.
sole (solvation energy) done.
----------solvation iteration  1 complete------------------
ch (properties) done.
post (output conversion) done.
pbf (Poisson-Boltzmann solver) done.
solv (solvation checking) done.
  
       i  u  d  i  g
       t  p  i  c  r                                 RMS    maximum
       e  d  i  u  i                       energy  density   DIIS  
       r  t  s  t  d       total energy    change  change    error 
  
etot    1  N  N  1  U   -4710.08881908038           7.0E-06  1.1E-04
etot    2  N  N  1  U   -4710.08882224809  3.2E-06  0.0E+00  0.0E+00
scf (DFT) done.
sole (solvation energy) done.
----------solvation iteration  2 complete------------------
ch (properties) done.
post (output conversion) done.
pbf (Poisson-Boltzmann solver) done.
solv (solvation checking) done.
  
       i  u  d  i  g
       t  p  i  c  r                                 RMS    maximum
       e  d  i  u  i                       energy  density   DIIS  
       r  t  s  t  d       total energy    change  change    error 
  
etot    1  N  N  1  U   -4710.08917289495           6.4E-06  1.3E-04
etot    2  N  N  1  U   -4710.08915414732 -1.9E-05  0.0E+00  0.0E+00
scf (DFT) done.
sole (solvation energy) done.
----------solvation iteration  3 complete------------------
ch (properties) done.
post (output conversion) done.
pbf (Poisson-Boltzmann solver) done.
solv (solvation checking) done.
  
       i  u  d  i  g
       t  p  i  c  r                                 RMS    maximum
       e  d  i  u  i                       energy  density   DIIS  
       r  t  s  t  d       total energy    change  change    error 
  
etot    1  N  N  1  U   -4710.08903991874           1.0E-05  2.1E-04
etot    2  N  Y  1  U   -4710.08897453174 -6.5E-05  6.7E-06  3.8E-04
etot    3  N  Y  1  U   -4710.08906678505  9.2E-05  2.1E-07  1.2E-05
etot    4  N  N  1  U   -4710.08906676872 -1.6E-08  0.0E+00  0.0E+00
scf (DFT) done.
sole (solvation energy) done.
----final solvation iteration  4 complete------------------
post (output conversion) done.
Job Toru-SiPh3-Type-I-E-2-chkp4-unrestrained-SPE completed on tethys at Fri Apr  7 01:15:26 2017
Timer (jaguar_backend.py) : 47538.86 secs (13 hrs, 12 mins, 18 secs)
Finished:   Fri Apr  7 01:15:26 2017
