Job Toru-SiPh3-Type-I-E-2-chkp4-unrestrained-SPE started on tethys at Thu Apr  6 12:03:07 2017
jobid: tethys-0-58e62069

  +--------------------------------------------------------------------+
  |  Jaguar version 9.5, release  11                                   |
  |                                                                    |
  |  Copyright Schrodinger, Inc.                                       |
  |  All Rights Reserved.                                              |
  |                                                                    |
  |  The following have contributed to Jaguar (listed alphabetically): |
  |  Mike Beachy, Art Bochevarov, Dale Braden, Yixiang Cao,            |
  |  Chris Cortis, Rich Friesner, Bill Goddard, Hod Greeley,           |
  |  Tom Hughes, Leif Jacobson, Jean-Marc Langlois,                    |
  |  Daniel Mainz, Rob Murphy, Dean Philipp, Tom Pollard,              |
  |  Murco Ringnalda, Mark Watson, Haoyu Yu.                           |
  |                                                                    |
  |  Use of this program should be acknowledged in publications as:    |
  |                                                                    |
  |  Jaguar, version 9.5, Schrodinger, Inc., New York, NY, 2017.       |
  |                                                                    |
  |  A. D. Bochevarov, E. Harder, T. F. Hughes, J. R. Greenwood,       |
  |  D. A. Braden, D. M. Philipp, D. Rinaldo, M. D. Halls,             |
  |  J. Zhang, R. A. Friesner, "Jaguar: A High-Performance Quantum     |
  |  Chemistry Software Program with Strengths in Life and Materials   |
  |  Sciences", Int. J. Quantum Chem., 2013, 113(18), 2110-2142.       |
  +--------------------------------------------------------------------+
  
  start of program pre
  
  Job name: Toru-SiPh3-Type-I-E-2-chkp4-unrestrained-SPE
  Executables used: /usr/local/shared/schrodinger/current/jaguar-v9.5/bin/Linux-x86_64
  Temporary files : /scratch/ab2144/Toru-SiPh3-Type-I-E-2-chkp4-unrestrained-SPE
  Maestro file (input):  Toru-SiPh3-Type-I-E-2-chkp4-unrestrained-SPE.mae
  Maestro file (output): Toru-SiPh3-Type-I-E-2-chkp4-unrestrained-SPE.01.mae
  
  basis set:             6-31g**                         
  net molecular charge:    0
  multiplicity:            1
  
  keygrid settings 
    wispc.....   7.500E-01
    ldens.....   0
    denspc....   7.500E-01
  
   grid     daf set  nls  grid set  Q type
  ------    -------  ---  --------  ------
  coarse       1      1       1        1
  medium       2      2       2        1
  fine         3      2       3        0
  ultrafine    4      2       4        1
  charge       0      1      -1        1
  gradient     5      2       4        1
  density      0      1       0        0
  DFT-fine     0      1     -13        0
  DFT-med.     0      1     -13        0
  DFT-grad     0      1     -13        0
  DFT-der2     0      1       0        0
  DFT-cphf     0      1       0        0
  LMP2-enrg    4      2       4        1
  LMP2-grad    5      2       2        1
  DFT-cphf2    0      1       0        0
  PBF-dens     0      1       0        0
  plotting     0      1       0        0
  Rel-grad     0      1     -17        0
  
  idftgrdm  100
  ndftgrdm   50    0    0
  idftgrdf  111
  ndftgrdf   85    0    0
  idftgrdg  111
  ndftgrdg   80    3    0
  idftgrdu  433
  ndftgrdu  105    0    0
  idftgrdd  433
  ndftgrdd  105    0    0
  idftgrdc  433
  ndftgrdc   26    0    0
  idftgrdp  433
  ndftgrdp   18    0    0
  
  number of basis functions....         1571
  
 Input geometry:
                                   angstroms
  atom               x                 y                 z
  C1           -0.4519000000     -5.3920000000     -0.4267000000 
  C2           -1.3645000000     -4.2194000000     -0.3072000000 
  C3           -0.9263000000     -6.5848000000     -0.8039000000 
  C4           -2.6645000000     -4.3704000000     -0.6391000000 
  C5           -0.8675000000     -2.8784000000      0.1318000000 
  C6           -3.1814000000     -5.6972000000     -1.0491000000 
  C7           -3.5688000000     -3.2083000000     -0.6319000000 
  C8           -2.3571000000     -6.7472000000     -1.1204000000 
  C9           -1.6720000000     -1.7918000000      0.0105000000 
  C10           0.5245000000     -2.7255000000      0.6270000000 
  C11          -3.1054000000     -1.9790000000     -0.3634000000 
  O12          -1.2489000000     -0.5525000000      0.4367000000 
  Si13         -4.2732000000     -0.5225000000     -0.4282000000 
  C14           1.0114000000     -3.4086000000      1.6880000000 
  C15           1.4280000000     -1.8497000000     -0.1573000000 
  C16           2.4687000000     -3.3701000000      1.9758000000 
  C17           0.1558000000     -4.2192000000      2.5894000000 
  C18           3.2950000000     -2.6701000000      1.1864000000 
  C19           2.9853000000     -4.1523000000      3.1160000000 
  C20           2.7603000000     -1.8906000000      0.0474000000 
  Si21          3.9578000000     -0.9680000000     -1.0430000000 
  O22           0.8769000000     -1.0151000000     -1.0949000000 
  C23           0.6956000000     -4.9007000000      3.6069000000 
  C24           2.1502000000     -4.8715000000      3.8742000000 
  P25          -0.0145000000      0.1832000000     -0.4080000000 
  O26          -0.5487000000      1.0295000000     -1.5322000000 
  O27           0.8036000000      0.8772000000      0.6635000000 
  C28          -3.8924000000      0.5585000000     -1.8920000000 
  C29          -6.0300000000     -1.0746000000     -0.6965000000 
  C30          -4.1340000000      0.3534000000      1.2056000000 
  C31           4.2924000000      0.7160000000     -0.3201000000 
  C32           5.5364000000     -1.9556000000     -1.1385000000 
  C33           3.2162000000     -0.8235000000     -2.7485000000 
  C34          -2.9875000000      0.1813000000     -2.8108000000 
  C35          -4.6827000000      1.7931000000     -2.1158000000 
  C36          -6.9744000000     -0.9016000000      0.2441000000 
  C37          -6.4033000000     -1.6735000000     -2.0014000000 
  C38          -3.9740000000      1.6838000000      1.2863000000 
  C39          -4.2374000000     -0.4454000000      2.4510000000 
  C40           4.9685000000      1.6367000000     -1.0284000000 
  C41           3.8352000000      1.0465000000      1.0516000000 
  C42           6.7391000000     -1.3735000000     -0.9891000000 
  C43           5.4630000000     -3.4244000000     -1.3398000000 
  C44           3.1074000000     -1.9009000000     -3.5444000000 
  C45           2.6402000000      0.4661000000     -3.1977000000 
  C46          -2.7254000000      1.0316000000     -3.9906000000 
  C47          -3.4174000000      2.1627000000     -4.1687000000 
  C48          -4.4498000000      2.5576000000     -3.1896000000 
  C49          -8.3658000000     -1.3293000000     -0.0125000000 
  C50          -8.6937000000     -1.8790000000     -1.1877000000 
  C51          -7.6648000000     -2.0570000000     -2.2317000000 
  C52          -3.9601000000      2.3501000000      2.6049000000 
  C53          -4.0648000000      1.6264000000      3.7255000000 
  C54          -4.2015000000      0.1586000000      3.6447000000 
  C55           5.2385000000      2.9703000000     -0.4523000000 
  C56           4.8088000000      3.2679000000      0.7791000000 
  C57           4.0774000000      2.2577000000      1.5686000000 
  C58           7.9733000000     -2.1839000000     -1.0579000000 
  C59           7.8993000000     -3.5049000000     -1.2555000000 
  C60           6.5823000000     -4.1560000000     -1.3975000000 
  C61           2.4576000000     -1.7890000000     -4.8674000000 
  C62           1.9514000000     -0.6178000000     -5.2698000000 
  C63           2.0402000000      0.5636000000     -4.3897000000 
  C64           2.1829000000      6.5985000000     -1.5652000000 
  C65           1.4226000000      6.1577000000     -0.4853000000 
  C66           1.2856000000      4.7865000000     -0.2178000000 
  C67           1.8971000000      3.8552000000     -1.0715000000 
  C68           2.6476000000      4.3020000000     -2.1575000000 
  C69           2.7980000000      5.6684000000     -2.4033000000 
  C70           0.5097000000      4.3930000000      0.9778000000 
  N71           0.8367000000      3.2512000000      1.6630000000 
  S72           0.3056000000      3.1647000000      3.2915000000 
  O73           1.1247000000      4.0755000000      4.0859000000 
  O74          -1.1601000000      3.3254000000      3.3085000000 
  C75           0.6656000000      1.4319000000      3.6983000000 
  C76          -0.3458000000      0.4904000000      3.5287000000 
  C77          -0.0522000000     -0.8162000000      3.9103000000 
  C78           1.2129000000     -1.0991000000      4.4218000000 
  C79           2.1492000000     -0.0678000000      4.5190000000 
  N80           1.8799000000      1.1939000000      4.1671000000 
  N81          -1.3234000000      3.4883000000     -0.9453000000 
  C82          -1.5702000000      4.3540000000     -1.9251000000 
  C83          -1.9415000000      5.6066000000     -1.3794000000 
  C84          -1.8987000000      5.4614000000     -0.0058000000 
  C85          -1.4192000000      4.1451000000      0.2901000000 
  H86           0.6067000000     -5.2945000000     -0.2282000000 
  H87          -0.2584000000     -7.4323000000     -0.8896000000 
  H88          -4.2286000000     -5.8208000000     -1.2959000000 
  H89          -4.6083000000     -3.3697000000     -0.8770000000 
  H90          -2.7351000000     -7.7155000000     -1.4221000000 
  H91          -0.9170000000     -4.2554000000      2.4509000000 
  H92           4.3589000000     -2.6573000000      1.3910000000 
  H93           4.0443000000     -4.1510000000      3.3448000000 
  H94           0.0548000000     -5.4819000000      4.2575000000 
  H95           2.5424000000     -5.4401000000      4.7075000000 
  H96           0.8899000000      2.2915000000      1.1728000000 
  H97          -2.4309000000     -0.7401000000     -2.7032000000 
  H98          -5.4579000000      2.0782000000     -1.4158000000 
  H99          -6.7424000000     -0.4472000000      1.1967000000 
  H100         -5.6553000000     -1.8045000000     -2.7735000000 
  H101         -3.8735000000      2.2925000000      0.4011000000 
  H102         -4.3455000000     -1.5217000000      2.3994000000 
  H103          5.3189000000      1.4177000000     -2.0294000000 
  H104          3.3071000000      0.3130000000      1.6457000000 
  H105          6.8333000000     -0.3115000000     -0.8190000000 
  H106          4.5032000000     -3.9186000000     -1.4164000000 
  H107          3.4770000000     -2.8658000000     -3.2324000000 
  H108          2.6642000000      1.3242000000     -2.5482000000 
  H109         -1.9709000000      0.7371000000     -4.7086000000 
  H110         -3.2256000000      2.7875000000     -5.0313000000 
  H111         -5.0233000000      3.4616000000     -3.3478000000 
  H112         -9.1193000000     -1.1944000000      0.7527000000 
  H113         -9.7127000000     -2.1910000000     -1.3768000000 
  H114         -7.9342000000     -2.4958000000     -3.1836000000 
  H115         -3.8648000000      3.4267000000      2.6611000000 
  H116         -4.0480000000      2.1140000000      4.6914000000 
  H117         -4.2767000000     -0.4260000000      4.5523000000 
  H118          5.7735000000      3.7094000000     -1.0342000000 
  H119          4.9959000000      4.2477000000      1.1987000000 
  H120          3.7416000000      2.5007000000      2.5677000000 
  H121          8.9376000000     -1.7049000000     -0.9473000000 
  H122          8.8025000000     -4.0992000000     -1.3047000000 
  H123          6.5244000000     -5.2277000000     -1.5374000000 
  H124          2.3862000000     -2.6595000000     -5.5066000000 
  H125          1.4694000000     -0.5358000000     -6.2353000000 
  H126          1.6067000000      1.5042000000     -4.7043000000 
  H127          2.2959000000      7.6626000000     -1.7487000000 
  H128          0.9439000000      6.8804000000      0.1694000000 
  H129          1.7892000000      2.7939000000     -0.8747000000 
  H130          3.1297000000      3.5875000000     -2.8155000000 
  H131          3.3929000000      6.0049000000     -3.2471000000 
  H132          0.2805000000      5.2285000000      1.6352000000 
  H133         -1.3003000000      0.7654000000      3.1038000000 
  H134         -0.8003000000     -1.5949000000      3.8033000000 
  H135          1.4772000000     -2.1007000000      4.7426000000 
  H136          3.1504000000     -0.2571000000      4.8979000000 
  H137         -1.0234000000      2.4815000000     -1.1173000000 
  H138         -1.4662000000      4.0620000000     -2.9613000000 
  H139         -2.1993000000      6.4889000000     -1.9473000000 
  H140         -2.1313000000      6.2089000000      0.7411000000 
  H141         -1.7014000000      3.5809000000      1.1699000000 
   
  principal moments of inertia:
        amu*angstrom^2:    17437.90723    21638.24120    26460.30789
                g*cm^2: 2.89563226E-36 3.59311404E-36 4.39383695E-36
   
  rotational constants:
               cm^(-1):      0.00096672      0.00077907      0.00063709
                   GHz:      0.02898163      0.02335583      0.01909951
   
  Molecular weight:    1177.32 amu
   
  Stoichiometry: Si2C72PN3H56SO6
[running at reduced cpu priority]
  Molecular Point Group: C1      
  Point Group used: C1
  
  nuclear repulsion energy.......   17577.539784606 hartrees
 
 Non-default options chosen:
   SCF calculation type: DFT(m06-2x)                 
   DFT=M06-2X
   Solvation energy will be computed using PBF
     -solute cavity energy will not be included
     -surface area terms will not be included
   Highest accuracy cutoffs used in SCF
   Solvent: other                                                           
   Internal dielectric constant:    1.000
   Continuum dielectric constant:   2.380
   Solvent probe molecule radius:   2.760
  
 Temporary integer options set:
     73=  2
  
  atom       vdw   vdw2    cov     mass  grid  daf  charge   basis
  C1        1.949  1.900  0.770   12.000    Y    Y      Y    6-31g**
  C2        1.949  1.900  0.770   12.000    Y    Y      Y    6-31g**
  C3        1.949  1.900  0.770   12.000    Y    Y      Y    6-31g**
  C4        1.949  1.900  0.770   12.000    Y    Y      Y    6-31g**
  C5        1.949  1.900  0.770   12.000    Y    Y      Y    6-31g**
  C6        1.949  1.900  0.770   12.000    Y    Y      Y    6-31g**
  C7        1.949  1.900  0.770   12.000    Y    Y      Y    6-31g**
  C8        1.949  1.900  0.770   12.000    Y    Y      Y    6-31g**
  C9        1.949  1.900  0.770   12.000    Y    Y      Y    6-31g**
  C10       1.949  1.900  0.770   12.000    Y    Y      Y    6-31g**
  C11       1.949  1.900  0.770   12.000    Y    Y      Y    6-31g**
  O12       1.702  1.600  0.730   15.995    Y    Y      Y    6-31g**
  Si13      2.217  2.147  1.110   27.977    Y    Y      Y    6-31g**
  C14       1.949  1.900  0.770   12.000    Y    Y      Y    6-31g**
  C15       1.949  1.900  0.770   12.000    Y    Y      Y    6-31g**
  C16       1.949  1.900  0.770   12.000    Y    Y      Y    6-31g**
  C17       1.949  1.900  0.770   12.000    Y    Y      Y    6-31g**
  C18       1.949  1.900  0.770   12.000    Y    Y      Y    6-31g**
  C19       1.949  1.900  0.770   12.000    Y    Y      Y    6-31g**
  C20       1.949  1.900  0.770   12.000    Y    Y      Y    6-31g**
  Si21      2.217  2.147  1.110   27.977    Y    Y      Y    6-31g**
  O22       1.702  1.600  0.730   15.995    Y    Y      Y    6-31g**
  C23       1.949  1.900  0.770   12.000    Y    Y      Y    6-31g**
  C24       1.949  1.900  0.770   12.000    Y    Y      Y    6-31g**
  P25       2.147  2.074  1.060   30.974    Y    Y      Y    6-31g**
  O26       1.702  1.600  0.730   15.995    Y    Y      Y    6-31g**
  O27       1.702  1.600  0.730   15.995    Y    Y      Y    6-31g**
  C28       1.949  1.900  0.770   12.000    Y    Y      Y    6-31g**
  C29       1.949  1.900  0.770   12.000    Y    Y      Y    6-31g**
  C30       1.949  1.900  0.770   12.000    Y    Y      Y    6-31g**
  C31       1.949  1.900  0.770   12.000    Y    Y      Y    6-31g**
  C32       1.949  1.900  0.770   12.000    Y    Y      Y    6-31g**
  C33       1.949  1.900  0.770   12.000    Y    Y      Y    6-31g**
  C34       1.949  1.900  0.770   12.000    Y    Y      Y    6-31g**
  C35       1.949  1.900  0.770   12.000    Y    Y      Y    6-31g**
  C36       1.949  1.900  0.770   12.000    Y    Y      Y    6-31g**
  C37       1.949  1.900  0.770   12.000    Y    Y      Y    6-31g**
  C38       1.949  1.900  0.770   12.000    Y    Y      Y    6-31g**
  C39       1.949  1.900  0.770   12.000    Y    Y      Y    6-31g**
  C40       1.949  1.900  0.770   12.000    Y    Y      Y    6-31g**
  C41       1.949  1.900  0.770   12.000    Y    Y      Y    6-31g**
  C42       1.949  1.900  0.770   12.000    Y    Y      Y    6-31g**
  C43       1.949  1.900  0.770   12.000    Y    Y      Y    6-31g**
  C44       1.949  1.900  0.770   12.000    Y    Y      Y    6-31g**
  C45       1.949  1.900  0.770   12.000    Y    Y      Y    6-31g**
  C46       1.949  1.900  0.770   12.000    Y    Y      Y    6-31g**
  C47       1.949  1.900  0.770   12.000    Y    Y      Y    6-31g**
  C48       1.949  1.900  0.770   12.000    Y    Y      Y    6-31g**
  C49       1.949  1.900  0.770   12.000    Y    Y      Y    6-31g**
  C50       1.949  1.900  0.770   12.000    Y    Y      Y    6-31g**
  C51       1.949  1.900  0.770   12.000    Y    Y      Y    6-31g**
  C52       1.949  1.900  0.770   12.000    Y    Y      Y    6-31g**
  C53       1.949  1.900  0.770   12.000    Y    Y      Y    6-31g**
  C54       1.949  1.900  0.770   12.000    Y    Y      Y    6-31g**
  C55       1.949  1.900  0.770   12.000    Y    Y      Y    6-31g**
  C56       1.949  1.900  0.770   12.000    Y    Y      Y    6-31g**
  C57       1.949  1.900  0.770   12.000    Y    Y      Y    6-31g**
  C58       1.949  1.900  0.770   12.000    Y    Y      Y    6-31g**
  C59       1.949  1.900  0.770   12.000    Y    Y      Y    6-31g**
  C60       1.949  1.900  0.770   12.000    Y    Y      Y    6-31g**
  C61       1.949  1.900  0.770   12.000    Y    Y      Y    6-31g**
  C62       1.949  1.900  0.770   12.000    Y    Y      Y    6-31g**
  C63       1.949  1.900  0.770   12.000    Y    Y      Y    6-31g**
  C64       1.949  1.900  0.770   12.000    Y    Y      Y    6-31g**
  C65       1.949  1.900  0.770   12.000    Y    Y      Y    6-31g**
  C66       1.949  1.900  0.770   12.000    Y    Y      Y    6-31g**
  C67       1.949  1.900  0.770   12.000    Y    Y      Y    6-31g**
  C68       1.949  1.900  0.770   12.000    Y    Y      Y    6-31g**
  C69       1.949  1.900  0.770   12.000    Y    Y      Y    6-31g**
  C70       1.949  1.900  0.770   12.000    Y    Y      Y    6-31g**
  N71       1.831  1.600  0.750   14.003    Y    Y      Y    6-31g**
  S72       2.070  1.900  1.020   31.972    Y    Y      Y    6-31g**
  O73       1.702  1.600  0.730   15.995    Y    Y      Y    6-31g**
  O74       1.702  1.600  0.730   15.995    Y    Y      Y    6-31g**
  C75       1.949  1.900  0.770   12.000    Y    Y      Y    6-31g**
  C76       1.949  1.900  0.770   12.000    Y    Y      Y    6-31g**
  C77       1.949  1.900  0.770   12.000    Y    Y      Y    6-31g**
  C78       1.949  1.900  0.770   12.000    Y    Y      Y    6-31g**
  C79       1.949  1.900  0.770   12.000    Y    Y      Y    6-31g**
  N80       1.831  1.600  0.750   14.003    Y    Y      Y    6-31g**
  N81       1.831  1.600  0.750   14.003    Y    Y      Y    6-31g**
  C82       1.949  1.900  0.770   12.000    Y    Y      Y    6-31g**
  C83       1.949  1.900  0.770   12.000    Y    Y      Y    6-31g**
  C84       1.949  1.900  0.770   12.000    Y    Y      Y    6-31g**
  C85       1.949  1.900  0.770   12.000    Y    Y      Y    6-31g**
  H86       1.597  1.150  0.320    1.008    Y    Y      Y    6-31g**
  H87       1.597  1.150  0.320    1.008    Y    Y      Y    6-31g**
  H88       1.597  1.150  0.320    1.008    Y    Y      Y    6-31g**
  H89       1.597  1.150  0.320    1.008    Y    Y      Y    6-31g**
  H90       1.597  1.150  0.320    1.008    Y    Y      Y    6-31g**
  H91       1.597  1.150  0.320    1.008    Y    Y      Y    6-31g**
  H92       1.597  1.150  0.320    1.008    Y    Y      Y    6-31g**
  H93       1.597  1.150  0.320    1.008    Y    Y      Y    6-31g**
  H94       1.597  1.150  0.320    1.008    Y    Y      Y    6-31g**
  H95       1.597  1.150  0.320    1.008    Y    Y      Y    6-31g**
  H96       1.597  1.150  0.320    1.008    Y    Y      Y    6-31g**
  H97       1.597  1.150  0.320    1.008    Y    Y      Y    6-31g**
  H98       1.597  1.150  0.320    1.008    Y    Y      Y    6-31g**
  H99       1.597  1.150  0.320    1.008    Y    Y      Y    6-31g**
  H100      1.597  1.150  0.320    1.008    Y    Y      Y    6-31g**
  H101      1.597  1.150  0.320    1.008    Y    Y      Y    6-31g**
  H102      1.597  1.150  0.320    1.008    Y    Y      Y    6-31g**
  H103      1.597  1.150  0.320    1.008    Y    Y      Y    6-31g**
  H104      1.597  1.150  0.320    1.008    Y    Y      Y    6-31g**
  H105      1.597  1.150  0.320    1.008    Y    Y      Y    6-31g**
  H106      1.597  1.150  0.320    1.008    Y    Y      Y    6-31g**
  H107      1.597  1.150  0.320    1.008    Y    Y      Y    6-31g**
  H108      1.597  1.150  0.320    1.008    Y    Y      Y    6-31g**
  H109      1.597  1.150  0.320    1.008    Y    Y      Y    6-31g**
  H110      1.597  1.150  0.320    1.008    Y    Y      Y    6-31g**
  H111      1.597  1.150  0.320    1.008    Y    Y      Y    6-31g**
  H112      1.597  1.150  0.320    1.008    Y    Y      Y    6-31g**
  H113      1.597  1.150  0.320    1.008    Y    Y      Y    6-31g**
  H114      1.597  1.150  0.320    1.008    Y    Y      Y    6-31g**
  H115      1.597  1.150  0.320    1.008    Y    Y      Y    6-31g**
  H116      1.597  1.150  0.320    1.008    Y    Y      Y    6-31g**
  H117      1.597  1.150  0.320    1.008    Y    Y      Y    6-31g**
  H118      1.597  1.150  0.320    1.008    Y    Y      Y    6-31g**
  H119      1.597  1.150  0.320    1.008    Y    Y      Y    6-31g**
  H120      1.597  1.150  0.320    1.008    Y    Y      Y    6-31g**
  H121      1.597  1.150  0.320    1.008    Y    Y      Y    6-31g**
  H122      1.597  1.150  0.320    1.008    Y    Y      Y    6-31g**
  H123      1.597  1.150  0.320    1.008    Y    Y      Y    6-31g**
  H124      1.597  1.150  0.320    1.008    Y    Y      Y    6-31g**
  H125      1.597  1.150  0.320    1.008    Y    Y      Y    6-31g**
  H126      1.597  1.150  0.320    1.008    Y    Y      Y    6-31g**
  H127      1.597  1.150  0.320    1.008    Y    Y      Y    6-31g**
  H128      1.597  1.150  0.320    1.008    Y    Y      Y    6-31g**
  H129      1.597  1.150  0.320    1.008    Y    Y      Y    6-31g**
  H130      1.597  1.150  0.320    1.008    Y    Y      Y    6-31g**
  H131      1.597  1.150  0.320    1.008    Y    Y      Y    6-31g**
  H132      1.597  1.150  0.320    1.008    Y    Y      Y    6-31g**
  H133      1.597  1.150  0.320    1.008    Y    Y      Y    6-31g**
  H134      1.597  1.150  0.320    1.008    Y    Y      Y    6-31g**
  H135      1.597  1.150  0.320    1.008    Y    Y      Y    6-31g**
  H136      1.597  1.150  0.320    1.008    Y    Y      Y    6-31g**
  H137      1.597  1.150  0.320    1.008    Y    Y      Y    6-31g**
  H138      1.597  1.150  0.320    1.008    Y    Y      Y    6-31g**
  H139      1.597  1.150  0.320    1.008    Y    Y      Y    6-31g**
  H140      1.597  1.150  0.320    1.008    Y    Y      Y    6-31g**
  H141      1.597  1.150  0.320    1.008    Y    Y      Y    6-31g**
  
  Peak memory usage:    766 Mb
  
  end of program pre
   
 Time(pre)  user:        0.8  user+sys:        0.8  wallclock:        1.7
  
  start of program onee
  
  smallest eigenvalue of S:    2.230E-04
  number of canonical orbitals.....         1564
  Peak memory usage:    893 Mb
  
  end of program onee
   
 Time(onee)  user:       14.1  user+sys:       14.1  wallclock:       16.3
  
  start of program hfig
  
  initial wavefunction generated automatically from atomic wavefunctions
 
  Irreducible     Total no   No of occupied orbitals 
  representation  orbitals   Shell_1  Shell_2    ...
  No Symm         1564        308
  ------------------------
  Orbital occupation/shell    1.000
 
  Peak memory usage:    826 Mb
  
  end of program hfig
   
 Time(hfig)  user:       22.7  user+sys:       22.7  wallclock:       23.9
  
  start of program probe
  
  Peak memory usage:    820 Mb
  
  end of program probe
   
 Time(probe)  user:       15.6  user+sys:       15.6  wallclock:       16.1
  
  start of program grid
  
   grid     grid set  grid #  grid sym
  ------    --------  ------  --------
  coarse        0        0        1
  medium        2        1        1
  fine          0        0        1
  ultrafine     4        2        1
  charge       -1        3        1
  gradient      4        2        1
  density       0        0        1
  DFT-fine    -13        4        1
  DFT-med.    -13        4        1
  DFT-grad    -13        4        1
  DFT-der2      0        0        1
  DFT-cphf      0        0        1
  LMP2-enrg     4        2        1
  LMP2-grad     2        1        1
  DFT-cphf2     0        0        1
  PBF-dens      0        0        1
  plotting      0        0        1
  Rel-grad    -17        0        1
  
  number of gridpoints: 
     atom        C1       C2       C3       C4       C5       C6       C7
  grid # 1       97      101       94      102      100       96       93
  grid # 2      338      360      336      366      358      336      337
  grid # 3       33       29       42       47       16       46       25
  grid # 4    48124    48124    48124    48124    48124    48124    48124
   
  number of gridpoints: 
     atom        C8       C9      C10      C11      O12     Si13      C14
  grid # 1       94       97      100      100      112      467      101
  grid # 2      336      356      353      357      439      467      356
  grid # 3       49       19       11        7       39        7        7
  grid # 4    48124    48124    48124    48124    47716    38542    48124
   
  number of gridpoints: 
     atom       C15      C16      C17      C18      C19      C20     Si21
  grid # 1       97      101       96       93       97      102      474
  grid # 2      354      362      332      331      335      358      474
  grid # 3       24       21       12       16       24        9       10
  grid # 4    48124    48124    48124    48124    48124    48124    38542
   
  number of gridpoints: 
     atom       O22      C23      C24      P25      O26      O27      C28
  grid # 1      112       94       93      445      116      115       99
  grid # 2      442      335      334      445      443      433      357
  grid # 3       59       22       26        8       52       33       10
  grid # 4    47716    48124    48124    38640    47716    47716    48124
   
  number of gridpoints: 
     atom       C29      C30      C31      C32      C33      C34      C35
  grid # 1       99      100      101      101      100       92       94
  grid # 2      360      357      356      360      360      332      335
  grid # 3       13        6       11       19       19       14       21
  grid # 4    48124    48124    48124    48124    48124    48124    48124
   
  number of gridpoints: 
     atom       C36      C37      C38      C39      C40      C41      C42
  grid # 1       92       94       92       94       92       97       93
  grid # 2      338      335      333      332      331      334      338
  grid # 3       29       22       18       10        8       22       38
  grid # 4    48124    48124    48124    48124    48124    48124    48124
   
  number of gridpoints: 
     atom       C43      C44      C45      C46      C47      C48      C49
  grid # 1       95       93       94       93       93       93       94
  grid # 2      334      335      332      333      331      334      335
  grid # 3       22       34       22       25       27       26       47
  grid # 4    48124    48124    48124    48124    48124    48124    48124
   
  number of gridpoints: 
     atom       C50      C51      C52      C53      C54      C55      C56
  grid # 1       94       93       93       93       92       93       93
  grid # 2      335      335      331      331      330      332      333
  grid # 3       47       39       23       24       17       21       26
  grid # 4    48124    48124    48124    48124    48124    48124    48124
   
  number of gridpoints: 
     atom       C57      C58      C59      C60      C61      C62      C63
  grid # 1       93       94       94       94       94       93       94
  grid # 2      334      336      336      336      336      336      335
  grid # 3       27       45       47       42       41       41       38
  grid # 4    48124    48124    48124    48124    48124    48124    48124
   
  number of gridpoints: 
     atom       C64      C65      C66      C67      C68      C69      C70
  grid # 1       95       95      100       95       95       95       91
  grid # 2      332      334      362      331      332      332      319
  grid # 3       34       26       18       13       22       32        6
  grid # 4    48124    48124    48124    48124    48124    48124    48124
   
  number of gridpoints: 
     atom       N71      S72      O73      O74      C75      C76      C77
  grid # 1       98      442      122      119       98       96       96
  grid # 2      354      442      505      470      357      325      330
  grid # 3       15       13      301      119       32       28       34
  grid # 4    47928    48492    47716    47716    48124    48124    48124
   
  number of gridpoints: 
     atom       C78      C79      N80      N81      C82      C83      C84
  grid # 1       96       96      110       98       94       93       93
  grid # 2      331      336      414      346      329      329      329
  grid # 3       36       30       73       11       16       20       18
  grid # 4    48124    48124    47928    47928    48124    48124    48124
   
  number of gridpoints: 
     atom       C85      H86      H87      H88      H89      H90      H91
  grid # 1       92      112      118      118      109      118      114
  grid # 2      324      434      451      446      424      453      431
  grid # 3        7      229      419      358      173      425      215
  grid # 4    48124    48426    48426    48426    48426    48426    48426
   
  number of gridpoints: 
     atom       H92      H93      H94      H95      H96      H97      H98
  grid # 1      114      117      117      117       98      111      112
  grid # 2      428      442      448      449      381      430      432
  grid # 3      198      341      396      401       39      191      251
  grid # 4    48426    48426    48426    48426    48426    48426    48426
   
  number of gridpoints: 
     atom       H99     H100     H101     H102     H103     H104     H105
  grid # 1      111      112      107      113      112      110      112
  grid # 2      435      434      418      435      431      416      431
  grid # 3      234      250      119      252      223      117      229
  grid # 4    48426    48426    48426    48426    48426    48426    48426
   
  number of gridpoints: 
     atom      H106     H107     H108     H109     H110     H111     H112
  grid # 1      110      111      104      115      117      117      118
  grid # 2      426      431      406      444      448      451      453
  grid # 3      190      213       51      298      362      382      420
  grid # 4    48426    48426    48426    48426    48426    48426    48426
   
  number of gridpoints: 
     atom      H113     H114     H115     H116     H117     H118     H119
  grid # 1      118      118      112      117      117      117      117
  grid # 2      453      452      437      450      449      445      450
  grid # 3      424      420      269      384      384      348      375
  grid # 4    48426    48426    48426    48426    48426    48426    48426
   
  number of gridpoints: 
     atom      H120     H121     H122     H123     H124     H125     H126
  grid # 1      111      118      118      118      118      117      116
  grid # 2      433      453      453      452      451      451      444
  grid # 3      215      419      425      418      418      392      305
  grid # 4    48426    48426    48426    48426    48426    48426    48426
   
  number of gridpoints: 
     atom      H127     H128     H129     H130     H131     H132     H133
  grid # 1      118      112      103      111      117      106      106
  grid # 2      449      435      404      424      450      417      416
  grid # 3      411      280       71      180      399      147      106
  grid # 4    48426    48426    48426    48426    48426    48426    48426
   
  number of gridpoints: 
     atom      H134     H135     H136     H137     H138     H139     H140
  grid # 1      111      111      117      102      112      117      115
  grid # 2      435      435      451      394      438      459      451
  grid # 3      224      231      391       74      252      428      362
  grid # 4    48426    48426    48426    48426    48426    48426    48426
   
  number of gridpoints: 
     atom      H141    total
  grid # 1      103    16037
  grid # 2      412    54555
  grid # 3       60    18326
  grid # 4    48426  6771080
   
  Peak memory usage:    793 Mb
  
  end of program grid
   
 Time(grid)  user:     1099.5  user+sys:     1099.5  wallclock:     1165.4
  
  start of program rwr
  
  Peak memory usage:    802 Mb
  
  end of program rwr
   
 Time(rwr)  user:       59.7  user+sys:       59.7  wallclock:       73.0
  
  start of program scf
  
 number of electrons..........        616
 number of alpha electrons....        308
 number of beta electrons.....        308
 number of orbitals, total....       1564
 number of doubly-occ'd orbs..        308
 number of open shell orbs....          0
 number of occupied orbitals..        308
 number of virtual orbitals...       1256
 number of hamiltonians.......          1
 number of shells.............          1
 SCF type: DFT=M06-2X
 Energy computed with NOPS off.
  
       i  u  d  i  g                   
       t  p  i  c  r                                 RMS    maximum
       e  d  i  u  i                       energy  density   DIIS  
       r  t  s  t  d       total energy    change  change    error 
  
etot    1  N  N  1  U   -4700.09805412039           2.2E-03  1.2E-01
etot    2  N  Y  1  U   -4707.34748138749  7.2E+00  1.8E-03  7.0E-02
etot    3  N  Y  1  U   -4707.76689237799  4.2E-01  1.2E-03  7.6E-02
etot    4  N  Y  1  U   -4709.93295011077  2.2E+00  3.9E-04  1.8E-02
etot    5  N  Y  1  U   -4709.98436717717  5.1E-02  2.1E-04  1.3E-02
etot    6  N  Y  1  U   -4710.04627316356  6.2E-02  6.1E-05  3.4E-03
etot    7  N  Y  1  U   -4710.05071902599  4.4E-03  1.6E-05  7.9E-04
etot    8  N  Y  1  U   -4710.05107477221  3.6E-04  6.3E-06  1.9E-04
etot    9  N  N  1  U   -4710.05111908562  4.4E-05  0.0E+00  0.0E+00
  
  
 Energy components, in hartrees:
   (A)  Nuclear repulsion............   17577.53978460617
   (E)  Total one-electron terms.....  -41492.17634698218
   (F)    Electron-nuclear...........  -46167.47648855066
   (H)    Kinetic....................    4675.30014156848
   (I)  Total two-electron terms.....   19204.58544329039
   (J)    Coulomb....................   19777.93128957217
   (K)    Exchange+Correlation.......    -573.34584628177
   (L)  Electronic energy............  -22287.59090369179  (E+I)
   (M)  -V/T.........................       2.00743288697  (-(A+F+I)/H)
   (N)  Total energy.................   -4710.05111908562  (A+L)
   (O)  Gas phase energy.............   -4710.05111908562
  
 SCFE: SCF energy: DFT(m06-2x)     -4710.05111908562 hartrees   iterations:   9
  
 
 HOMO energy:    -0.25502
 LUMO energy:    -0.06036
 
  Orbital energies (hartrees): 
   -90.15785   -78.18833   -67.00672   -67.00555   -19.67767   -19.67517
   -19.63960   -19.63833   -19.59378   -19.59108   -14.81471   -14.79685
   -14.78185   -10.65673   -10.62145   -10.62014   -10.61978   -10.61344
   -10.59663   -10.59619   -10.57783   -10.57645   -10.57596   -10.57325
   -10.57072   -10.57043   -10.57009   -10.56890   -10.56611   -10.56527
   -10.56499   -10.56441   -10.56378   -10.56368   -10.56345   -10.56044
   -10.55976   -10.55976   -10.55930   -10.55928   -10.55763   -10.55734
   -10.55665   -10.55274   -10.55231   -10.55142   -10.55069   -10.54979
   -10.54921   -10.54915   -10.54878   -10.54876   -10.54857   -10.54820
   -10.54773   -10.54770   -10.54761   -10.54749   -10.54677   -10.54650
   -10.54649   -10.54584   -10.54569   -10.54500   -10.54482   -10.54456
   -10.54455   -10.54254   -10.54137   -10.54092   -10.54038   -10.53984
   -10.53885   -10.53857   -10.53779   -10.53759   -10.53621   -10.53535
   -10.53231   -10.53230   -10.53205   -10.53185   -10.52732   -10.52648
   -10.52433    -8.46902    -6.96741    -6.39110    -6.39008    -6.38954
    -5.53810    -5.53673    -5.08599    -5.08479    -5.08342    -3.84794
    -3.84757    -3.84730    -3.84656    -3.84615    -3.84604    -1.23177
    -1.21476    -1.16938    -1.11707    -1.10672    -1.09238    -1.07290
    -1.05714    -1.04247    -0.98172    -0.97001    -0.96743    -0.94443
    -0.94229    -0.94065    -0.93787    -0.93409    -0.93143    -0.92148
    -0.91259    -0.91137    -0.89494    -0.89039    -0.88944    -0.87196
    -0.85424    -0.85163    -0.84233    -0.84135    -0.83802    -0.83506
    -0.83455    -0.83412    -0.83116    -0.83000    -0.82846    -0.82571
    -0.82552    -0.82434    -0.82271    -0.82270    -0.82062    -0.81793
    -0.80075    -0.79602    -0.74728    -0.73508    -0.72672    -0.70995
    -0.70687    -0.70167    -0.69635    -0.68922    -0.68848    -0.68419
    -0.67911    -0.67809    -0.67665    -0.67605    -0.67282    -0.67131
    -0.66885    -0.66657    -0.66620    -0.66286    -0.66161    -0.65942
    -0.65833    -0.65742    -0.65378    -0.64756    -0.64202    -0.63751
    -0.61953    -0.60757    -0.60662    -0.60128    -0.59856    -0.59244
    -0.58165    -0.58059    -0.57837    -0.57678    -0.57444    -0.57358
    -0.57046    -0.56474    -0.56031    -0.55747    -0.54688    -0.54424
    -0.54310    -0.54170    -0.53654    -0.53378    -0.52923    -0.52719
    -0.52407    -0.52335    -0.51885    -0.51722    -0.51473    -0.51420
    -0.51254    -0.51061    -0.50883    -0.50648    -0.50574    -0.50103
    -0.50068    -0.49871    -0.49846    -0.49793    -0.49594    -0.49527
    -0.49370    -0.49271    -0.49211    -0.48999    -0.48957    -0.48749
    -0.48342    -0.48314    -0.48187    -0.48139    -0.48103    -0.47957
    -0.47734    -0.47439    -0.47166    -0.47104    -0.46966    -0.46778
    -0.46197    -0.45718    -0.45158    -0.45112    -0.44918    -0.44827
    -0.44643    -0.44366    -0.44152    -0.43845    -0.43263    -0.42796
    -0.42727    -0.42454    -0.42317    -0.42256    -0.42137    -0.41983
    -0.41616    -0.41387    -0.41283    -0.41034    -0.40672    -0.40445
    -0.40023    -0.39936    -0.39302    -0.39149    -0.39129    -0.39089
    -0.39044    -0.38838    -0.38755    -0.38536    -0.38466    -0.38129
    -0.37884    -0.37753    -0.37402    -0.37195    -0.36999    -0.35505
    -0.35326    -0.35156    -0.34693    -0.34538    -0.34053    -0.33914
    -0.33806    -0.33715    -0.33648    -0.33402    -0.33358    -0.32597
    -0.32124    -0.31213    -0.31004    -0.30447    -0.30151    -0.29991
    -0.29852    -0.29780    -0.29548    -0.29320    -0.29100    -0.28871
    -0.28794    -0.28702    -0.28454    -0.28436    -0.28301    -0.27951
    -0.27230    -0.25502    -0.06036    -0.02302    -0.01029     0.00024
     0.00843     0.01332     0.01934     0.02054     0.02199     0.02351
 
  Peak memory usage:   1020 Mb
  
  end of program scf
   
 Time(scf)  user:    21544.7  user+sys:    21544.7  wallclock:    22807.4
  
  start of program ch
  
  gridpoints used for charge fit        15805
    out of a possible maximum of        18326
  
   Electrostatic potential fitting constrained to reproduce
     total charge:                yes
     dipole moment:               no 
     traceless quadrupole moment: no 
     traceless octapole moment:   no 
  
  Atomic charges from electrostatic potential: 
   
 Atom       C1           C2           C3           C4           C5      
 Charge   -0.12301      0.04010     -0.16950      0.13462     -0.02721
   
 Atom       C6           C7           C8           C9           C10     
 Charge   -0.20385     -0.28096     -0.11710      0.04488     -0.10965
   
 Atom       C11          O12          Si13         C14          C15     
 Charge    0.08474     -0.25282     -0.13805      0.18746      0.13762
   
 Atom       C16          C17          C18          C19          C20     
 Charge    0.22509     -0.22970     -0.46648     -0.26312      0.02284
   
 Atom       Si21         O22          C23          C24          P25     
 Charge    0.21753     -0.21439     -0.14592     -0.10525      0.82629
   
 Atom       O26          O27          C28          C29          C30     
 Charge   -0.55487     -0.59368      0.08825      0.10751      0.24060
   
 Atom       C31          C32          C33          C34          C35     
 Charge    0.07076     -0.09434     -0.12211     -0.02121     -0.21502
   
 Atom       C36          C37          C38          C39          C40     
 Charge   -0.13271     -0.14736     -0.24533     -0.17187     -0.06936
   
 Atom       C41          C42          C43          C44          C45     
 Charge   -0.24888     -0.03481     -0.10249     -0.03139     -0.02032
   
 Atom       C46          C47          C48          C49          C50     
 Charge   -0.18639     -0.11512     -0.12612     -0.15236     -0.13618
   
 Atom       C51          C52          C53          C54          C55     
 Charge   -0.12991     -0.06251     -0.18402     -0.10989     -0.16188
   
 Atom       C56          C57          C58          C59          C60     
 Charge   -0.16988     -0.01170     -0.17677     -0.10877     -0.14133
   
 Atom       C61          C62          C63          C64          C65     
 Charge   -0.20943     -0.08197     -0.15532     -0.12863     -0.21001
   
 Atom       C66          C67          C68          C69          C70     
 Charge    0.27390     -0.14780     -0.04890     -0.17133     -0.22068
   
 Atom       N71          S72          O73          O74          C75     
 Charge   -0.33138      0.65840     -0.41090     -0.46109      0.56414
   
 Atom       C76          C77          C78          C79          N80     
 Charge   -0.41306      0.18054     -0.39544      0.37384     -0.59305
   
 Atom       N81          C82          C83          C84          C85     
 Charge    0.02746     -0.03888     -0.26254     -0.17705      0.01756
   
 Atom       H86          H87          H88          H89          H90     
 Charge    0.11422      0.14504      0.14043      0.14934      0.13314
   
 Atom       H91          H92          H93          H94          H95     
 Charge    0.14207      0.21721      0.15937      0.14245      0.12897
   
 Atom       H96          H97          H98          H99          H100    
 Charge    0.37591      0.09557      0.14893      0.09984      0.11677
   
 Atom       H101         H102         H103         H104         H105    
 Charge    0.10356      0.11178      0.08966      0.14422      0.07306
   
 Atom       H106         H107         H108         H109         H110    
 Charge    0.12491      0.08712      0.04542      0.14074      0.11850
   
 Atom       H111         H112         H113         H114         H115    
 Charge    0.12223      0.13697      0.13207      0.12958      0.11713
   
 Atom       H116         H117         H118         H119         H120    
 Charge    0.14920      0.12257      0.12609      0.14269      0.07989
   
 Atom       H121         H122         H123         H124         H125    
 Charge    0.13852      0.12541      0.12461      0.14188      0.11655
   
 Atom       H126         H127         H128         H129         H130    
 Charge    0.11523      0.14380      0.13322      0.10765      0.10309
   
 Atom       H131         H132         H133         H134         H135    
 Charge    0.14542      0.22059      0.16733      0.09376      0.14999
   
 Atom       H136         H137         H138         H139         H140    
 Charge    0.06365      0.20095      0.16159      0.18618      0.16950
   
 Atom       H141    
 Charge    0.14334
  
  sum of atomic charges:    -0.000000
   
 RMS Error   9.60E-04 hartrees
 
  Peak memory usage:    810 Mb
  
  end of program ch
   
 Time(ch)  user:       17.3  user+sys:       17.3  wallclock:       19.4
  
  start of program post
  
  Writing input files for PBF
  Peak memory usage:    757 Mb
  
  end of program post
   
 Time(post)  user:        0.7  user+sys:        0.7  wallclock:        1.0

  start of program pbf

Pbf Version 4.10

Molecular surface area:      775.06316   [A2]
Reaction field energy:       -16.10497   [kT]
  Peak memory usage: 719 Mb

  end of program pbf

 Time(pbf)  user:       13.1  user+sys:       13.2  wallclock:       13.4
  
  start of program solv
  
   number of surface charges from PBF   13194
   sum of surface charges     -0.00026
   
  nuclear repulsion energy.......   17577.539784606 hartrees
  Peak memory usage:    887 Mb
  
  end of program solv
   
 Time(solv)  user:       34.2  user+sys:       34.2  wallclock:       34.9
  
  start of program scf
  
 Energy computed with NOPS off.
  
       i  u  d  i  g                   
       t  p  i  c  r                                 RMS    maximum
       e  d  i  u  i                       energy  density   DIIS  
       r  t  s  t  d       total energy    change  change    error 
  
etot    1  N  N  1  U   -4710.08508940678           5.7E-05  8.6E-04
etot    2  N  Y  1  U   -4710.08581449119  7.3E-04  1.9E-05  8.0E-04
etot    3  N  Y  1  U   -4710.08611431623  3.0E-04  6.3E-06  3.6E-04
etot    4  N  Y  1  U   -4710.08616665136  5.2E-05  2.7E-06  8.6E-05
etot    5  N  N  1  U   -4710.08617368338  7.0E-06  0.0E+00  0.0E+00
  
  
 Energy components, in hartrees:
   (A)  Total zero-electron terms....   17579.55182564477
   (B)    Nuclear-nuclear............   17577.53978460617
   (C)    Nuclear-solvent............       2.01204103860
   (E)  Total one-electron terms.....  -41495.50697770048
   (F)    Electron-nuclear...........  -46168.82892881262
   (G)    Electron-solvent...........      -2.04813673397
   (H)    Kinetic....................    4675.37008784611
   (I)  Total two-electron terms.....   19205.86897837234
   (J)    Coulomb....................   19779.23773418299
   (K)    Exchange+Correlation.......    -573.36875581065
   (L)  Electronic energy............  -22289.63799932814  (E+I)
   (N)  Total quantum mech. energy...   -4710.08617368338  (A+L)
   (O)  Gas phase energy.............   -4710.05111908562
   (P)  Solution phase energy........   -4710.06812583569  (Q+R+S)
   (Q)    Total solute energy........   -4710.05007798800  (N-C-G)
   (R)    Total solvent energy.......      -0.01804784769  (C/2+G/2)
   (S)    Solute cavity energy.......       0.00000000000
   (U)  Reorganization energy........       0.00104109762  (Q-O)
   (V)  Solvation energy.............      -0.01700675007  (P-O)
  
 SCFE:  Solution phase energy: DFT(m06-2x)      -4710.06812583569 hartrees
        SCF iterations:   5
  
 
 HOMO energy:    -0.25570
 LUMO energy:    -0.05929
 
  Orbital energies (hartrees): 
   -90.16569   -78.18920   -67.00770   -67.00734   -19.67827   -19.67566
   -19.64675   -19.64596   -19.59500   -19.59204   -14.81284   -14.80043
   -14.78486   -10.65649   -10.62525   -10.62099   -10.62042   -10.61127
   -10.59870   -10.59435   -10.57885   -10.57655   -10.57634   -10.57279
   -10.57250   -10.57157   -10.57062   -10.56742   -10.56712   -10.56602
   -10.56401   -10.56252   -10.56172   -10.56136   -10.56131   -10.55990
   -10.55982   -10.55867   -10.55836   -10.55834   -10.55793   -10.55726
   -10.55528   -10.55329   -10.55328   -10.55189   -10.55086   -10.55086
   -10.55074   -10.55060   -10.55027   -10.55009   -10.54992   -10.54979
   -10.54912   -10.54907   -10.54887   -10.54862   -10.54784   -10.54747
   -10.54746   -10.54733   -10.54680   -10.54615   -10.54589   -10.54511
   -10.54474   -10.54366   -10.54269   -10.54252   -10.54210   -10.54195
   -10.54100   -10.54052   -10.54020   -10.53873   -10.53824   -10.53804
   -10.53557   -10.53450   -10.53374   -10.53347   -10.52889   -10.52760
   -10.52684    -8.47675    -6.96830    -6.39876    -6.39790    -6.39728
    -5.53911    -5.53855    -5.08688    -5.08568    -5.08431    -3.84895
    -3.84858    -3.84836    -3.84832    -3.84798    -3.84787    -1.23982
    -1.21565    -1.17023    -1.12560    -1.10540    -1.09298    -1.07645
    -1.05923    -1.04403    -0.98257    -0.96836    -0.96819    -0.94599
    -0.94457    -0.94224    -0.93852    -0.93678    -0.93419    -0.92193
    -0.91551    -0.91194    -0.89432    -0.89106    -0.88974    -0.87185
    -0.85474    -0.84939    -0.84350    -0.84297    -0.83712    -0.83648
    -0.83619    -0.83453    -0.83204    -0.83057    -0.82932    -0.82812
    -0.82687    -0.82549    -0.82535    -0.82343    -0.82279    -0.82042
    -0.80122    -0.79792    -0.74860    -0.73570    -0.72938    -0.71077
    -0.70713    -0.70184    -0.69723    -0.68987    -0.68906    -0.68284
    -0.67924    -0.67806    -0.67761    -0.67741    -0.67384    -0.67234
    -0.66933    -0.66833    -0.66418    -0.66386    -0.66338    -0.66104
    -0.65887    -0.65806    -0.65599    -0.64791    -0.64136    -0.63901
    -0.62002    -0.60848    -0.60656    -0.60254    -0.59881    -0.59689
    -0.58219    -0.58121    -0.57897    -0.57725    -0.57546    -0.57424
    -0.57235    -0.56769    -0.56097    -0.56043    -0.54757    -0.54492
    -0.54336    -0.54267    -0.53775    -0.53661    -0.52927    -0.52725
    -0.52562    -0.52339    -0.51908    -0.51764    -0.51525    -0.51447
    -0.51291    -0.51128    -0.51031    -0.50677    -0.50564    -0.50190
    -0.50171    -0.49966    -0.49872    -0.49753    -0.49646    -0.49478
    -0.49439    -0.49397    -0.49313    -0.49178    -0.49106    -0.48849
    -0.48407    -0.48390    -0.48290    -0.48228    -0.48215    -0.48157
    -0.47746    -0.47325    -0.47297    -0.47049    -0.47021    -0.46741
    -0.46270    -0.45841    -0.45298    -0.45219    -0.45051    -0.44966
    -0.44728    -0.44402    -0.44226    -0.43953    -0.43342    -0.42940
    -0.42866    -0.42605    -0.42528    -0.42294    -0.42206    -0.42099
    -0.41768    -0.41580    -0.41474    -0.41280    -0.40760    -0.40485
    -0.40120    -0.39952    -0.39563    -0.39450    -0.39320    -0.39262
    -0.39202    -0.39098    -0.38827    -0.38698    -0.38617    -0.38310
    -0.38088    -0.38067    -0.37852    -0.37527    -0.37114    -0.35624
    -0.35538    -0.35321    -0.34837    -0.34654    -0.34181    -0.34117
    -0.34021    -0.33875    -0.33789    -0.33706    -0.33230    -0.32745
    -0.32373    -0.31179    -0.30876    -0.30614    -0.30351    -0.30240
    -0.30106    -0.29965    -0.29727    -0.29559    -0.29228    -0.29099
    -0.28915    -0.28887    -0.28649    -0.28645    -0.28517    -0.28004
    -0.27336    -0.25570    -0.05929    -0.02365    -0.01377    -0.00108
     0.00621     0.01201     0.01830     0.01894     0.02120     0.02227
 
  Peak memory usage:   1020 Mb
  
  end of program scf
   
 Time(scf)  user:     9838.5  user+sys:     9838.5  wallclock:    10305.1
  
  start of program sole
  
    SCRF                   solvation energy
  iteration          Hartrees            kcal/mol
     0               0.0000000            0.0000
     1              -0.0170068          -10.6719
  
  solvation energy not yet converged... 
  
  Peak memory usage:    812 Mb
  
  end of program sole
   
 Time(sole)  user:        0.2  user+sys:        0.2  wallclock:        0.4
  
  start of program ch
  
  gridpoints used for charge fit        15805
    out of a possible maximum of        15805
  
   Electrostatic potential fitting constrained to reproduce
     total charge:                yes
     dipole moment:               no 
     traceless quadrupole moment: no 
     traceless octapole moment:   no 
  
  Atomic charges from electrostatic potential: 
   
 Atom       C1           C2           C3           C4           C5      
 Charge   -0.11825      0.03414     -0.18099      0.14190     -0.02461
   
 Atom       C6           C7           C8           C9           C10     
 Charge   -0.21536     -0.30110     -0.12187      0.02881     -0.10829
   
 Atom       C11          O12          Si13         C14          C15     
 Charge    0.10951     -0.24300     -0.16423      0.19381      0.11777
   
 Atom       C16          C17          C18          C19          C20     
 Charge    0.22956     -0.23552     -0.48371     -0.27126      0.04461
   
 Atom       Si21         O22          C23          C24          P25     
 Charge    0.20374     -0.19269     -0.15125     -0.11206      0.79065
   
 Atom       O26          O27          C28          C29          C30     
 Charge   -0.54233     -0.57643      0.10078      0.11149      0.25579
   
 Atom       C31          C32          C33          C34          C35     
 Charge    0.07543     -0.10303     -0.12452     -0.02472     -0.22742
   
 Atom       C36          C37          C38          C39          C40     
 Charge   -0.13557     -0.15326     -0.25641     -0.17758     -0.06421
   
 Atom       C41          C42          C43          C44          C45     
 Charge   -0.25628     -0.03131     -0.10290     -0.04022     -0.02442
   
 Atom       C46          C47          C48          C49          C50     
 Charge   -0.19808     -0.12273     -0.12876     -0.16182     -0.14362
   
 Atom       C51          C52          C53          C54          C55     
 Charge   -0.13518     -0.06668     -0.19301     -0.11370     -0.16978
   
 Atom       C56          C57          C58          C59          C60     
 Charge   -0.17673     -0.02201     -0.18891     -0.11297     -0.14918
   
 Atom       C61          C62          C63          C64          C65     
 Charge   -0.21571     -0.08831     -0.16031     -0.13150     -0.22040
   
 Atom       C66          C67          C68          C69          C70     
 Charge    0.29818     -0.16499     -0.04339     -0.17852     -0.26298
   
 Atom       N71          S72          O73          O74          C75     
 Charge   -0.29941      0.66953     -0.44090     -0.47446      0.57218
   
 Atom       C76          C77          C78          C79          N80     
 Charge   -0.41879      0.18419     -0.39857      0.38250     -0.62122
   
 Atom       N81          C82          C83          C84          C85     
 Charge    0.03608     -0.03720     -0.26255     -0.18545      0.00800
   
 Atom       H86          H87          H88          H89          H90     
 Charge    0.11387      0.15402      0.14796      0.15634      0.14154
   
 Atom       H91          H92          H93          H94          H95     
 Charge    0.14548      0.22561      0.16725      0.15061      0.13763
   
 Atom       H96          H97          H98          H99          H100    
 Charge    0.35988      0.09666      0.15385      0.10036      0.12078
   
 Atom       H101         H102         H103         H104         H105    
 Charge    0.10863      0.11550      0.09202      0.14764      0.07163
   
 Atom       H106         H107         H108         H109         H110    
 Charge    0.12910      0.09177      0.04920      0.14840      0.12730
   
 Atom       H111         H112         H113         H114         H115    
 Charge    0.12838      0.14512      0.14022      0.13722      0.11988
   
 Atom       H116         H117         H118         H119         H120    
 Charge    0.15512      0.12972      0.13383      0.14934      0.08107
   
 Atom       H121         H122         H123         H124         H125    
 Charge    0.14738      0.13319      0.13251      0.14906      0.12329
   
 Atom       H126         H127         H128         H129         H130    
 Charge    0.12004      0.15121      0.14231      0.11102      0.10287
   
 Atom       H131         H132         H133         H134         H135    
 Charge    0.15282      0.23592      0.17136      0.09829      0.15664
   
 Atom       H136         H137         H138         H139         H140    
 Charge    0.07166      0.19629      0.16807      0.19430      0.18151
   
 Atom       H141    
 Charge    0.15127
  
  sum of atomic charges:     0.000000
   
 RMS Error   9.74E-04 hartrees
 
  Peak memory usage:    811 Mb
  
  end of program ch
   
 Time(ch)  user:       16.5  user+sys:       16.5  wallclock:       18.7
  
  start of program post
  
  Writing input files for PBF
  Peak memory usage:    758 Mb
  
  end of program post
   
 Time(post)  user:        0.8  user+sys:        0.8  wallclock:        1.1

  start of program pbf

Pbf Version 4.10

Molecular surface area:      775.06316   [A2]
Reaction field energy:       -18.59785   [kT]
  Peak memory usage: 719 Mb

  end of program pbf

 Time(pbf)  user:       13.2  user+sys:       13.5  wallclock:       13.8
  
  start of program solv
  
   number of surface charges from PBF   13194
   sum of surface charges     -0.00028
   
  nuclear repulsion energy.......   17577.539784606 hartrees
  Peak memory usage:    887 Mb
  
  end of program solv
   
 Time(solv)  user:       34.2  user+sys:       34.2  wallclock:       34.9
  
  start of program scf
  
 Energy computed with NOPS off.
  
       i  u  d  i  g                   
       t  p  i  c  r                                 RMS    maximum
       e  d  i  u  i                       energy  density   DIIS  
       r  t  s  t  d       total energy    change  change    error 
  
etot    1  N  N  1  U   -4710.08881908038           7.0E-06  1.1E-04
etot    2  N  N  1  U   -4710.08882224809  3.2E-06  0.0E+00  0.0E+00
  
  
 Energy components, in hartrees:
   (A)  Total zero-electron terms....   17579.77324301941
   (B)    Nuclear-nuclear............   17577.53978460617
   (C)    Nuclear-solvent............       2.23345841324
   (E)  Total one-electron terms.....  -41496.02287750940
   (F)    Electron-nuclear...........  -46169.12998416255
   (G)    Electron-solvent...........      -2.27252676105
   (H)    Kinetic....................    4675.37963341420
   (I)  Total two-electron terms.....   19206.16081224190
   (J)    Coulomb....................   19779.53156159214
   (K)    Exchange+Correlation.......    -573.37074935024
   (L)  Electronic energy............  -22289.86206526750  (E+I)
   (N)  Total quantum mech. energy...   -4710.08882224809  (A+L)
   (O)  Gas phase energy.............   -4710.05111908562
   (P)  Solution phase energy........   -4710.06928807418  (Q+R+S)
   (Q)    Total solute energy........   -4710.04975390028  (N-C-G)
   (R)    Total solvent energy.......      -0.01953417390  (C/2+G/2)
   (S)    Solute cavity energy.......       0.00000000000
   (U)  Reorganization energy........       0.00136518534  (Q-O)
   (V)  Solvation energy.............      -0.01816898856  (P-O)
  
 SCFE:  Solution phase energy: DFT(m06-2x)      -4710.06928807418 hartrees
        SCF iterations:   2
  
 
 HOMO energy:    -0.26834
 LUMO energy:    -0.05871
 
  Orbital energies (hartrees): 
   -54.59691   -39.11377   -34.15323   -33.41623   -28.88407   -27.06401
   -26.32123   -26.14208   -23.34718   -22.87404   -21.07220   -19.04563
   -17.96769   -17.55992   -17.36667   -16.89861   -16.22107   -15.43763
   -15.03080   -13.98946   -13.96242   -13.43351   -13.00904   -12.33660
   -11.89469   -11.75356   -11.72973   -11.68882   -11.59421   -11.57583
   -11.55033   -11.43457   -11.31919   -11.20433   -11.13887   -11.04444
   -11.01278   -10.98822   -10.95339   -10.91180   -10.89038   -10.87853
   -10.87124   -10.85283   -10.85088   -10.78342   -10.77904   -10.75521
   -10.74783   -10.74324   -10.72470   -10.68178   -10.64410   -10.62798
   -10.61200   -10.59724   -10.58384   -10.56482   -10.56076   -10.54592
   -10.43638   -10.43286   -10.42837   -10.28153   -10.23142   -10.22071
   -10.21834   -10.13044   -10.05768   -10.05738   -10.03651    -9.96825
    -9.89054    -9.88462    -9.79073    -9.71695    -9.54184    -9.53529
    -9.49226    -9.44420    -9.35804    -9.33728    -9.29626    -9.27452
    -9.25192    -9.23982    -8.98075    -8.80146    -8.67495    -8.64442
    -8.56262    -8.48886    -8.47793    -8.25398    -8.24485    -8.04721
    -7.09149    -6.71071    -6.70574    -6.51650    -4.49330    -1.20898
    -1.08349    -1.07642    -1.03153    -1.01786    -0.98619    -0.97858
    -0.96952    -0.96712    -0.93087    -0.92561    -0.92305    -0.90905
    -0.90815    -0.89937    -0.89898    -0.89847    -0.89280    -0.88471
    -0.87763    -0.87653    -0.87519    -0.86140    -0.84734    -0.84485
    -0.83443    -0.83398    -0.82395    -0.82073    -0.81461    -0.79559
    -0.79254    -0.78905    -0.78631    -0.77753    -0.77452    -0.77390
    -0.77359    -0.77249    -0.77052    -0.76785    -0.75964    -0.75205
    -0.75039    -0.73805    -0.72924    -0.72482    -0.71206    -0.71148
    -0.69987    -0.69638    -0.69622    -0.68538    -0.68528    -0.68405
    -0.67001    -0.66753    -0.66518    -0.66013    -0.65863    -0.65829
    -0.65756    -0.65246    -0.65133    -0.64970    -0.64648    -0.64608
    -0.64186    -0.64046    -0.63722    -0.63106    -0.62979    -0.62561
    -0.61562    -0.61065    -0.60804    -0.60667    -0.60348    -0.58667
    -0.58521    -0.58119    -0.57474    -0.56902    -0.56653    -0.56479
    -0.56432    -0.56136    -0.55990    -0.55975    -0.55911    -0.55566
    -0.55463    -0.55271    -0.55247    -0.55219    -0.55074    -0.55065
    -0.54857    -0.54752    -0.54532    -0.54391    -0.54245    -0.53743
    -0.53739    -0.53529    -0.53177    -0.53055    -0.52947    -0.52926
    -0.52574    -0.52144    -0.51927    -0.51915    -0.51793    -0.51553
    -0.51539    -0.51526    -0.51456    -0.51125    -0.51082    -0.50979
    -0.50391    -0.49960    -0.49926    -0.49829    -0.49688    -0.49476
    -0.49320    -0.49221    -0.49147    -0.49033    -0.49000    -0.48969
    -0.48858    -0.48440    -0.48335    -0.48300    -0.47903    -0.47840
    -0.47661    -0.47628    -0.47570    -0.47530    -0.47313    -0.47259
    -0.47144    -0.47098    -0.46919    -0.46880    -0.46645    -0.46239
    -0.46035    -0.45989    -0.45838    -0.45788    -0.45597    -0.45106
    -0.44912    -0.44843    -0.44692    -0.44648    -0.44638    -0.44320
    -0.44308    -0.44302    -0.43914    -0.43616    -0.43507    -0.43257
    -0.43145    -0.42745    -0.42296    -0.42251    -0.42131    -0.42119
    -0.41582    -0.41523    -0.41346    -0.41173    -0.41156    -0.40357
    -0.40334    -0.40243    -0.38882    -0.38720    -0.37338    -0.36742
    -0.36457    -0.34509    -0.34383    -0.34076    -0.33116    -0.32657
    -0.32622    -0.32088    -0.31997    -0.31944    -0.31899    -0.31648
    -0.31480    -0.31330    -0.31062    -0.30743    -0.30519    -0.29499
    -0.29232    -0.26834    -0.05871    -0.02354    -0.01376    -0.00115
     0.00616     0.01209     0.01840     0.01898     0.02143     0.02223
 
  Peak memory usage:   1020 Mb
  
  end of program scf
   
 Time(scf)  user:     2447.1  user+sys:     2447.1  wallclock:     2567.8
  
  start of program sole
  
    SCRF                   solvation energy
  iteration          Hartrees            kcal/mol
     0               0.0000000            0.0000
     1              -0.0170068          -10.6719
     2              -0.0181690          -11.4012
  
  solvation energy not yet converged... 
  
  Peak memory usage:    812 Mb
  
  end of program sole
   
 Time(sole)  user:        0.2  user+sys:        0.2  wallclock:        0.2
  
  start of program ch
  
  gridpoints used for charge fit        15805
    out of a possible maximum of        15805
  
   Electrostatic potential fitting constrained to reproduce
     total charge:                yes
     dipole moment:               no 
     traceless quadrupole moment: no 
     traceless octapole moment:   no 
  
  Atomic charges from electrostatic potential: 
   
 Atom       C1           C2           C3           C4           C5      
 Charge   -0.11792      0.03389     -0.18143      0.14226     -0.02376
   
 Atom       C6           C7           C8           C9           C10     
 Charge   -0.21655     -0.30288     -0.12159      0.02707     -0.10809
   
 Atom       C11          O12          Si13         C14          C15     
 Charge    0.11114     -0.24167     -0.16640      0.19496      0.11559
   
 Atom       C16          C17          C18          C19          C20     
 Charge    0.23021     -0.23520     -0.48591     -0.27238      0.04549
   
 Atom       Si21         O22          C23          C24          P25     
 Charge    0.20218     -0.19025     -0.15130     -0.11098      0.78626
   
 Atom       O26          O27          C28          C29          C30     
 Charge   -0.54048     -0.57478      0.10117      0.11131      0.25659
   
 Atom       C31          C32          C33          C34          C35     
 Charge    0.07410     -0.10456     -0.12566     -0.02485     -0.22850
   
 Atom       C36          C37          C38          C39          C40     
 Charge   -0.13586     -0.15381     -0.25721     -0.17790     -0.06275
   
 Atom       C41          C42          C43          C44          C45     
 Charge   -0.25595     -0.03119     -0.10336     -0.04076     -0.02563
   
 Atom       C46          C47          C48          C49          C50     
 Charge   -0.19954     -0.12230     -0.12857     -0.16238     -0.14359
   
 Atom       C51          C52          C53          C54          C55     
 Charge   -0.13508     -0.06743     -0.19321     -0.11364     -0.16892
   
 Atom       C56          C57          C58          C59          C60     
 Charge   -0.17753     -0.02430     -0.18983     -0.11211     -0.14898
   
 Atom       C61          C62          C63          C64          C65     
 Charge   -0.21570     -0.08790     -0.16015     -0.12995     -0.22061
   
 Atom       C66          C67          C68          C69          C70     
 Charge    0.29675     -0.16641     -0.04225     -0.17769     -0.26721
   
 Atom       N71          S72          O73          O74          C75     
 Charge   -0.29782      0.66686     -0.44359     -0.47300      0.57013
   
 Atom       C76          C77          C78          C79          N80     
 Charge   -0.41833      0.18621     -0.39703      0.38263     -0.62519
   
 Atom       N81          C82          C83          C84          C85     
 Charge    0.03573     -0.03444     -0.25993     -0.18549      0.00676
   
 Atom       H86          H87          H88          H89          H90     
 Charge    0.11385      0.15466      0.14841      0.15679      0.14217
   
 Atom       H91          H92          H93          H94          H95     
 Charge    0.14548      0.22623      0.16778      0.15118      0.13820
   
 Atom       H96          H97          H98          H99          H100    
 Charge    0.35894      0.09649      0.15391      0.10008      0.12085
   
 Atom       H101         H102         H103         H104         H105    
 Charge    0.10908      0.11582      0.09211      0.14724      0.07128
   
 Atom       H106         H107         H108         H109         H110    
 Charge    0.12947      0.09188      0.04992      0.14914      0.12810
   
 Atom       H111         H112         H113         H114         H115    
 Charge    0.12897      0.14563      0.14083      0.13782      0.11997
   
 Atom       H116         H117         H118         H119         H120    
 Charge    0.15520      0.13035      0.13451      0.14977      0.08099
   
 Atom       H121         H122         H123         H124         H125    
 Charge    0.14797      0.13374      0.13318      0.14951      0.12372
   
 Atom       H126         H127         H128         H129         H130    
 Charge    0.12052      0.15164      0.14310      0.11047      0.10238
   
 Atom       H131         H132         H133         H134         H135    
 Charge    0.15313      0.23712      0.17180      0.09848      0.15743
   
 Atom       H136         H137         H138         H139         H140    
 Charge    0.07251      0.19559      0.16818      0.19473      0.18223
   
 Atom       H141    
 Charge    0.15183
  
  sum of atomic charges:     0.000000
   
 RMS Error   9.75E-04 hartrees
 
  Peak memory usage:    811 Mb
  
  end of program ch
   
 Time(ch)  user:       16.3  user+sys:       16.3  wallclock:       18.8
  
  start of program post
  
  Writing input files for PBF
  Peak memory usage:    758 Mb
  
  end of program post
   
 Time(post)  user:        0.8  user+sys:        0.8  wallclock:        1.0

  start of program pbf

Pbf Version 4.10

Molecular surface area:      775.06316   [A2]
Reaction field energy:       -18.95306   [kT]
  Peak memory usage: 719 Mb

  end of program pbf

 Time(pbf)  user:       13.3  user+sys:       13.4  wallclock:       13.6
  
  start of program solv
  
   number of surface charges from PBF   13194
   sum of surface charges     -0.00028
   
  nuclear repulsion energy.......   17577.539784606 hartrees
  Peak memory usage:    887 Mb
  
  end of program solv
   
 Time(solv)  user:       34.3  user+sys:       34.3  wallclock:       34.6
  
  start of program scf
  
 Energy computed with NOPS off.
  
       i  u  d  i  g                   
       t  p  i  c  r                                 RMS    maximum
       e  d  i  u  i                       energy  density   DIIS  
       r  t  s  t  d       total energy    change  change    error 
  
etot    1  N  N  1  U   -4710.08917289495           6.4E-06  1.3E-04
etot    2  N  N  1  U   -4710.08915414732 -1.9E-05  0.0E+00  0.0E+00
  
  
 Energy components, in hartrees:
   (A)  Total zero-electron terms....   17579.81677921169
   (B)    Nuclear-nuclear............   17577.53978460617
   (C)    Nuclear-solvent............       2.27699460552
   (E)  Total one-electron terms.....  -41495.77210114653
   (F)    Electron-nuclear...........  -46168.81905020677
   (G)    Electron-solvent...........      -2.31628391907
   (H)    Kinetic....................    4675.36323297932
   (I)  Total two-electron terms.....   19205.86616778752
   (J)    Coulomb....................   19779.23526205129
   (K)    Exchange+Correlation.......    -573.36909426378
   (L)  Electronic energy............  -22289.90593335901  (E+I)
   (N)  Total quantum mech. energy...   -4710.08915414732  (A+L)
   (O)  Gas phase energy.............   -4710.05111908562
   (P)  Solution phase energy........   -4710.06950949055  (Q+R+S)
   (Q)    Total solute energy........   -4710.04986483377  (N-C-G)
   (R)    Total solvent energy.......      -0.01964465678  (C/2+G/2)
   (S)    Solute cavity energy.......       0.00000000000
   (U)  Reorganization energy........       0.00125425185  (Q-O)
   (V)  Solvation energy.............      -0.01839040493  (P-O)
  
 SCFE:  Solution phase energy: DFT(m06-2x)      -4710.06950949055 hartrees
        SCF iterations:   2
  
 
 HOMO energy:    -0.25574
 LUMO energy:    -0.05962
 
  Orbital energies (hartrees): 
   -90.16816   -78.18981   -67.00859   -67.00823   -19.67896   -19.67598
   -19.65016   -19.64528   -19.59669   -19.59202   -14.81354   -14.80384
   -14.78833   -10.65848   -10.62796   -10.62136   -10.62132   -10.60973
   -10.59948   -10.59487   -10.57822   -10.57775   -10.57692   -10.57187
   -10.57179   -10.57085   -10.57051   -10.56690   -10.56685   -10.56578
   -10.56384   -10.56349   -10.56160   -10.56078   -10.56054   -10.55951
   -10.55909   -10.55858   -10.55808   -10.55747   -10.55717   -10.55676
   -10.55427   -10.55344   -10.55309   -10.55165   -10.55129   -10.55077
   -10.55073   -10.55071   -10.55065   -10.55045   -10.55029   -10.55004
   -10.54978   -10.54915   -10.54889   -10.54872   -10.54800   -10.54788
   -10.54773   -10.54758   -10.54651   -10.54624   -10.54611   -10.54553
   -10.54436   -10.54435   -10.54263   -10.54248   -10.54244   -10.54236
   -10.54157   -10.54064   -10.54025   -10.54014   -10.53971   -10.53954
   -10.53757   -10.53583   -10.53444   -10.53408   -10.53031   -10.52828
   -10.52818    -8.47917    -6.96891    -6.40117    -6.40033    -6.39970
    -5.53979    -5.53964    -5.08749    -5.08629    -5.08492    -3.84959
    -3.84948    -3.84922    -3.84911    -3.84911    -3.84885    -1.24185
    -1.21624    -1.17073    -1.12743    -1.10547    -1.09360    -1.07843
    -1.06081    -1.04529    -0.98253    -0.96835    -0.96822    -0.94631
    -0.94506    -0.94260    -0.93854    -0.93755    -0.93489    -0.92179
    -0.91597    -0.91199    -0.89497    -0.89117    -0.88965    -0.87231
    -0.85461    -0.84921    -0.84374    -0.84349    -0.83728    -0.83690
    -0.83635    -0.83449    -0.83228    -0.83065    -0.82940    -0.82859
    -0.82715    -0.82631    -0.82577    -0.82360    -0.82327    -0.82115
    -0.80127    -0.79890    -0.74948    -0.73595    -0.73030    -0.71135
    -0.70761    -0.70181    -0.69744    -0.69002    -0.68949    -0.68281
    -0.67946    -0.67839    -0.67793    -0.67773    -0.67410    -0.67262
    -0.66938    -0.66892    -0.66464    -0.66439    -0.66303    -0.66154
    -0.65898    -0.65828    -0.65670    -0.64799    -0.64182    -0.63950
    -0.62025    -0.60883    -0.60704    -0.60298    -0.59886    -0.59808
    -0.58233    -0.58131    -0.57924    -0.57738    -0.57593    -0.57489
    -0.57285    -0.56850    -0.56158    -0.56064    -0.54811    -0.54522
    -0.54370    -0.54344    -0.53835    -0.53712    -0.52947    -0.52745
    -0.52612    -0.52339    -0.51920    -0.51787    -0.51553    -0.51471
    -0.51312    -0.51156    -0.51082    -0.50700    -0.50597    -0.50214
    -0.50206    -0.49990    -0.49907    -0.49733    -0.49658    -0.49536
    -0.49455    -0.49417    -0.49328    -0.49244    -0.49127    -0.48943
    -0.48433    -0.48417    -0.48321    -0.48264    -0.48254    -0.48181
    -0.47747    -0.47354    -0.47295    -0.47116    -0.47062    -0.46652
    -0.46288    -0.45859    -0.45335    -0.45248    -0.45083    -0.45010
    -0.44740    -0.44458    -0.44242    -0.43979    -0.43377    -0.43007
    -0.42899    -0.42635    -0.42561    -0.42332    -0.42257    -0.42121
    -0.41795    -0.41628    -0.41531    -0.41360    -0.40785    -0.40507
    -0.40139    -0.39947    -0.39691    -0.39565    -0.39361    -0.39300
    -0.39224    -0.39138    -0.38846    -0.38751    -0.38645    -0.38353
    -0.38206    -0.38177    -0.37887    -0.37628    -0.37154    -0.35661
    -0.35608    -0.35379    -0.34880    -0.34684    -0.34261    -0.34190
    -0.34119    -0.33952    -0.33836    -0.33817    -0.33197    -0.32760
    -0.32462    -0.31219    -0.30873    -0.30638    -0.30381    -0.30282
    -0.30163    -0.29999    -0.29768    -0.29652    -0.29243    -0.29143
    -0.28944    -0.28927    -0.28716    -0.28693    -0.28559    -0.28052
    -0.27337    -0.25574    -0.05962    -0.02378    -0.01490    -0.00117
     0.00552     0.01173     0.01773     0.01858     0.02091     0.02206
 
  Peak memory usage:   1020 Mb
  
  end of program scf
   
 Time(scf)  user:     2445.3  user+sys:     2445.3  wallclock:     2567.7
  
  start of program sole
  
    SCRF                   solvation energy
  iteration          Hartrees            kcal/mol
     0               0.0000000            0.0000
     1              -0.0170068          -10.6719
     2              -0.0181690          -11.4012
     3              -0.0183904          -11.5402
  
  solvation energy not yet converged... 
  
  Peak memory usage:    812 Mb
  
  end of program sole
   
 Time(sole)  user:        0.2  user+sys:        0.2  wallclock:        0.4
  
  start of program ch
  
  gridpoints used for charge fit        15805
    out of a possible maximum of        15805
  
   Electrostatic potential fitting constrained to reproduce
     total charge:                yes
     dipole moment:               no 
     traceless quadrupole moment: no 
     traceless octapole moment:   no 
  
  Atomic charges from electrostatic potential: 
   
 Atom       C1           C2           C3           C4           C5      
 Charge   -0.11811      0.03395     -0.18162      0.14221     -0.02471
   
 Atom       C6           C7           C8           C9           C10     
 Charge   -0.21587     -0.30237     -0.12219      0.02761     -0.10906
   
 Atom       C11          O12          Si13         C14          C15     
 Charge    0.11127     -0.24207     -0.16544      0.19274      0.11622
   
 Atom       C16          C17          C18          C19          C20     
 Charge    0.23003     -0.23593     -0.48512     -0.27137      0.04873
   
 Atom       Si21         O22          C23          C24          P25     
 Charge    0.20248     -0.19046     -0.15176     -0.11274      0.78655
   
 Atom       O26          O27          C28          C29          C30     
 Charge   -0.54143     -0.57356      0.10308      0.11180      0.25647
   
 Atom       C31          C32          C33          C34          C35     
 Charge    0.07629     -0.10329     -0.12447     -0.02572     -0.22826
   
 Atom       C36          C37          C38          C39          C40     
 Charge   -0.13571     -0.15308     -0.25658     -0.17767     -0.06449
   
 Atom       C41          C42          C43          C44          C45     
 Charge   -0.25558     -0.03088     -0.10215     -0.04083     -0.02388
   
 Atom       C46          C47          C48          C49          C50     
 Charge   -0.19859     -0.12383     -0.12910     -0.16253     -0.14407
   
 Atom       C51          C52          C53          C54          C55     
 Charge   -0.13586     -0.06709     -0.19346     -0.11436     -0.17124
   
 Atom       C56          C57          C58          C59          C60     
 Charge   -0.17715     -0.02374     -0.19005     -0.11326     -0.15042
   
 Atom       C61          C62          C63          C64          C65     
 Charge   -0.21622     -0.08902     -0.16137     -0.13241     -0.22107
   
 Atom       C66          C67          C68          C69          C70     
 Charge    0.30082     -0.16460     -0.04369     -0.17939     -0.26713
   
 Atom       N71          S72          O73          O74          C75     
 Charge   -0.29220      0.66965     -0.44429     -0.47708      0.57342
   
 Atom       C76          C77          C78          C79          N80     
 Charge   -0.41970      0.18308     -0.39874      0.38230     -0.62257
   
 Atom       N81          C82          C83          C84          C85     
 Charge    0.03789     -0.03940     -0.26257     -0.18636      0.00665
   
 Atom       H86          H87          H88          H89          H90     
 Charge    0.11388      0.15476      0.14830      0.15654      0.14229
   
 Atom       H91          H92          H93          H94          H95     
 Charge    0.14545      0.22609      0.16783      0.15158      0.13862
   
 Atom       H96          H97          H98          H99          H100    
 Charge    0.35819      0.09684      0.15377      0.09994      0.12072
   
 Atom       H101         H102         H103         H104         H105    
 Charge    0.10884      0.11556      0.09204      0.14786      0.07088
   
 Atom       H106         H107         H108         H109         H110    
 Charge    0.12919      0.09169      0.04931      0.14890      0.12831
   
 Atom       H111         H112         H113         H114         H115    
 Charge    0.12897      0.14562      0.14089      0.13789      0.11965
   
 Atom       H116         H117         H118         H119         H120    
 Charge    0.15517      0.13042      0.13477      0.14968      0.08097
   
 Atom       H121         H122         H123         H124         H125    
 Charge    0.14798      0.13392      0.13331      0.14957      0.12388
   
 Atom       H126         H127         H128         H129         H130    
 Charge    0.12045      0.15213      0.14298      0.11108      0.10254
   
 Atom       H131         H132         H133         H134         H135    
 Charge    0.15352      0.23673      0.17176      0.09894      0.15727
   
 Atom       H136         H137         H138         H139         H140    
 Charge    0.07245      0.19589      0.16910      0.19559      0.18273
   
 Atom       H141    
 Charge    0.15252
  
  sum of atomic charges:     0.000000
   
 RMS Error   9.76E-04 hartrees
 
  Peak memory usage:    811 Mb
  
  end of program ch
   
 Time(ch)  user:       16.9  user+sys:       16.9  wallclock:       19.7
  
  start of program post
  
  Writing input files for PBF
  Peak memory usage:    758 Mb
  
  end of program post
   
 Time(post)  user:        0.7  user+sys:        0.7  wallclock:        1.1

  start of program pbf

Pbf Version 4.10

Molecular surface area:      775.06316   [A2]
Reaction field energy:       -18.82691   [kT]
  Peak memory usage: 719 Mb

  end of program pbf

 Time(pbf)  user:       13.0  user+sys:       13.5  wallclock:       13.6
  
  start of program solv
  
   number of surface charges from PBF   13194
   sum of surface charges     -0.00028
   
  nuclear repulsion energy.......   17577.539784606 hartrees
  Peak memory usage:    887 Mb
  
  end of program solv
   
 Time(solv)  user:       34.1  user+sys:       34.1  wallclock:       34.7
  
  start of program scf
  
 Energy computed with NOPS off.
  
       i  u  d  i  g                   
       t  p  i  c  r                                 RMS    maximum
       e  d  i  u  i                       energy  density   DIIS  
       r  t  s  t  d       total energy    change  change    error 
  
etot    1  N  N  1  U   -4710.08903991874           1.0E-05  2.1E-04
etot    2  N  Y  1  U   -4710.08897453174 -6.5E-05  6.7E-06  3.8E-04
etot    3  N  Y  1  U   -4710.08906678505  9.2E-05  2.1E-07  1.2E-05
etot    4  N  N  1  U   -4710.08906676872 -1.6E-08  0.0E+00  0.0E+00
  
  
 Energy components, in hartrees:
   (A)  Total zero-electron terms....   17579.79314545537
   (B)    Nuclear-nuclear............   17577.53978460617
   (C)    Nuclear-solvent............       2.25336084920
   (E)  Total one-electron terms.....  -41495.92109501686
   (F)    Electron-nuclear...........  -46168.99900157959
   (G)    Electron-solvent...........      -2.29260855197
   (H)    Kinetic....................    4675.37051511470
   (I)  Total two-electron terms.....   19206.03888279276
   (J)    Coulomb....................   19779.40869341487
   (K)    Exchange+Correlation.......    -573.36981062210
   (L)  Electronic energy............  -22289.88221222409  (E+I)
   (N)  Total quantum mech. energy...   -4710.08906676872  (A+L)
   (O)  Gas phase energy.............   -4710.05111908562
   (P)  Solution phase energy........   -4710.06944291734  (Q+R+S)
   (Q)    Total solute energy........   -4710.04981906595  (N-C-G)
   (R)    Total solvent energy.......      -0.01962385139  (C/2+G/2)
   (S)    Solute cavity energy.......       0.00000000000
   (U)  Reorganization energy........       0.00130001967  (Q-O)
   (V)  Solvation energy.............      -0.01832383172  (P-O)
  
 SCFE:  Solution phase energy: DFT(m06-2x)      -4710.06944291734 hartrees
        SCF iterations:   4
  
 
 HOMO energy:    -0.25568
 LUMO energy:    -0.05905
 
  Orbital energies (hartrees): 
   -90.16632   -78.18924   -67.00779   -67.00731   -19.67827   -19.67583
   -19.64859   -19.64764   -19.59485   -19.59208   -14.81257   -14.80005
   -14.78539   -10.65604   -10.62579   -10.62109   -10.62032   -10.61114
   -10.59885   -10.59427   -10.57930   -10.57692   -10.57599   -10.57268
   -10.57247   -10.57181   -10.57090   -10.56737   -10.56692   -10.56627
   -10.56392   -10.56219   -10.56153   -10.56147   -10.56095   -10.55953
   -10.55950   -10.55878   -10.55823   -10.55816   -10.55756   -10.55716
   -10.55493   -10.55338   -10.55330   -10.55182   -10.55120   -10.55084
   -10.55076   -10.55064   -10.55054   -10.55031   -10.55019   -10.54990
   -10.54941   -10.54934   -10.54893   -10.54870   -10.54805   -10.54799
   -10.54780   -10.54757   -10.54664   -10.54640   -10.54619   -10.54519
   -10.54468   -10.54397   -10.54276   -10.54266   -10.54247   -10.54205
   -10.54134   -10.54080   -10.54037   -10.53882   -10.53844   -10.53769
   -10.53604   -10.53468   -10.53399   -10.53372   -10.52902   -10.52767
   -10.52699    -8.47743    -6.96834    -6.39942    -6.39860    -6.39795
    -5.53921    -5.53854    -5.08692    -5.08572    -5.08435    -3.84905
    -3.84868    -3.84842    -3.84835    -3.84796    -3.84786    -1.24097
    -1.21570    -1.17032    -1.12693    -1.10524    -1.09295    -1.07695
    -1.05922    -1.04400    -0.98263    -0.96839    -0.96786    -0.94623
    -0.94476    -0.94254    -0.93854    -0.93705    -0.93445    -0.92190
    -0.91593    -0.91188    -0.89442    -0.89108    -0.88964    -0.87174
    -0.85474    -0.84903    -0.84366    -0.84309    -0.83728    -0.83664
    -0.83632    -0.83453    -0.83207    -0.83059    -0.82936    -0.82832
    -0.82707    -0.82571    -0.82560    -0.82349    -0.82295    -0.82067
    -0.80119    -0.79809    -0.74868    -0.73570    -0.72978    -0.71080
    -0.70711    -0.70180    -0.69731    -0.68991    -0.68907    -0.68263
    -0.67936    -0.67817    -0.67759    -0.67743    -0.67396    -0.67246
    -0.66939    -0.66852    -0.66432    -0.66409    -0.66315    -0.66120
    -0.65893    -0.65807    -0.65623    -0.64792    -0.64140    -0.63906
    -0.62001    -0.60859    -0.60649    -0.60267    -0.59881    -0.59747
    -0.58225    -0.58125    -0.57911    -0.57728    -0.57558    -0.57441
    -0.57252    -0.56795    -0.56132    -0.56054    -0.54762    -0.54496
    -0.54349    -0.54294    -0.53797    -0.53673    -0.52929    -0.52726
    -0.52581    -0.52332    -0.51909    -0.51777    -0.51535    -0.51454
    -0.51291    -0.51132    -0.51045    -0.50688    -0.50557    -0.50206
    -0.50179    -0.49978    -0.49872    -0.49745    -0.49653    -0.49498
    -0.49433    -0.49391    -0.49320    -0.49197    -0.49109    -0.48867
    -0.48415    -0.48391    -0.48302    -0.48250    -0.48241    -0.48174
    -0.47748    -0.47333    -0.47287    -0.47071    -0.47028    -0.46708
    -0.46272    -0.45854    -0.45323    -0.45228    -0.45064    -0.44978
    -0.44737    -0.44417    -0.44223    -0.43954    -0.43346    -0.42959
    -0.42883    -0.42620    -0.42542    -0.42316    -0.42220    -0.42104
    -0.41781    -0.41597    -0.41496    -0.41309    -0.40757    -0.40476
    -0.40129    -0.39949    -0.39654    -0.39498    -0.39341    -0.39274
    -0.39217    -0.39125    -0.38829    -0.38717    -0.38620    -0.38323
    -0.38166    -0.38113    -0.37859    -0.37552    -0.37111    -0.35634
    -0.35565    -0.35332    -0.34845    -0.34668    -0.34209    -0.34137
    -0.34043    -0.33884    -0.33810    -0.33730    -0.33204    -0.32757
    -0.32402    -0.31161    -0.30853    -0.30630    -0.30375    -0.30257
    -0.30123    -0.29992    -0.29759    -0.29586    -0.29236    -0.29117
    -0.28923    -0.28898    -0.28670    -0.28662    -0.28527    -0.27999
    -0.27339    -0.25568    -0.05905    -0.02363    -0.01424    -0.00117
     0.00590     0.01194     0.01815     0.01880     0.02124     0.02215
 
  Peak memory usage:   1020 Mb
  
  end of program scf
   
 Time(scf)  user:     7352.9  user+sys:     7352.9  wallclock:     7707.3
  
  start of program sole
  
    SCRF                   solvation energy
  iteration          Hartrees            kcal/mol
     0               0.0000000            0.0000
     1              -0.0170068          -10.6719
     2              -0.0181690          -11.4012
     3              -0.0183904          -11.5402
     4              -0.0183238          -11.4984
  
  stopping: solvation energy converged
  
  iterations:   4    sfinal:    -11.4984 kcal/mol
  
  Peak memory usage:    812 Mb
  
  end of program sole
   
 Time(sole)  user:        0.2  user+sys:        0.2  wallclock:        0.2
  
  start of program post
  
  Writing input files for PBF
  Peak memory usage:    758 Mb
  
  end of program post
   
 Time(post)  user:        0.8  user+sys:        0.8  wallclock:        1.3

 Total cpu seconds     user:   45039.100   user+sys:   45039.100
  
 Total elapsed time:    47539 seconds

Job Toru-SiPh3-Type-I-E-2-chkp4-unrestrained-SPE completed on tethys at Fri Apr  7 01:15:26 2017
