Job Toru-NTf-Sulfonyl-1-chkp-unrestrained-IRC-max-disp-SPE started on tethys at Fri Mar 24 13:45:23 2017
jobid: tethys-0-58d522f1

  +--------------------------------------------------------------------+
  |  Jaguar version 9.5, release  11                                   |
  |                                                                    |
  |  Copyright Schrodinger, Inc.                                       |
  |  All Rights Reserved.                                              |
  |                                                                    |
  |  The following have contributed to Jaguar (listed alphabetically): |
  |  Mike Beachy, Art Bochevarov, Dale Braden, Yixiang Cao,            |
  |  Chris Cortis, Rich Friesner, Bill Goddard, Hod Greeley,           |
  |  Tom Hughes, Leif Jacobson, Jean-Marc Langlois,                    |
  |  Daniel Mainz, Rob Murphy, Dean Philipp, Tom Pollard,              |
  |  Murco Ringnalda, Mark Watson, Haoyu Yu.                           |
  |                                                                    |
  |  Use of this program should be acknowledged in publications as:    |
  |                                                                    |
  |  Jaguar, version 9.5, Schrodinger, Inc., New York, NY, 2017.       |
  |                                                                    |
  |  A. D. Bochevarov, E. Harder, T. F. Hughes, J. R. Greenwood,       |
  |  D. A. Braden, D. M. Philipp, D. Rinaldo, M. D. Halls,             |
  |  J. Zhang, R. A. Friesner, "Jaguar: A High-Performance Quantum     |
  |  Chemistry Software Program with Strengths in Life and Materials   |
  |  Sciences", Int. J. Quantum Chem., 2013, 113(18), 2110-2142.       |
  +--------------------------------------------------------------------+
  
  start of program pre
  
  Job name: Toru-NTf-Sulfonyl-1-chkp-unrestrained-IRC-max-disp-SPE
  Executables used: /usr/local/shared/schrodinger/current/jaguar-v9.5/bin/Linux-x86_64
  Temporary files : /scratch/ab2144/Toru-NTf-Sulfonyl-1-chkp-unrestrained-IRC-max-disp-SPE
  Maestro file (input):  Toru-NTf-Sulfonyl-1-chkp-unrestrained-IRC-max-disp-SPE.mae
  Maestro file (output): Toru-NTf-Sulfonyl-1-chkp-unrestrained-IRC-max-disp-SPE.01.mae
  
  basis set:             6-31g**                         
  net molecular charge:    0
  multiplicity:            1
  
  keygrid settings 
    wispc.....   7.500E-01
    ldens.....   0
    denspc....   7.500E-01
  
   grid     daf set  nls  grid set  Q type
  ------    -------  ---  --------  ------
  coarse       1      1       1        1
  medium       2      2       2        1
  fine         3      2       3        0
  ultrafine    4      2       4        1
  charge       0      1      -1        1
  gradient     5      2       4        1
  density      0      1       0        0
  DFT-fine     0      1     -13        0
  DFT-med.     0      1     -13        0
  DFT-grad     0      1     -13        0
  DFT-der2     0      1       0        0
  DFT-cphf     0      1       0        0
  LMP2-enrg    4      2       4        1
  LMP2-grad    5      2       2        1
  DFT-cphf2    0      1       0        0
  PBF-dens     0      1       0        0
  plotting     0      1       0        0
  Rel-grad     0      1     -17        0
  
  idftgrdm  100
  ndftgrdm   50    0    0
  idftgrdf  111
  ndftgrdf   85    0    0
  idftgrdg  111
  ndftgrdg   80    3    0
  idftgrdu  433
  ndftgrdu  105    0    0
  idftgrdd  433
  ndftgrdd  105    0    0
  idftgrdc  433
  ndftgrdc   26    0    0
  idftgrdp  433
  ndftgrdp   18    0    0
  
  number of basis functions....         1680
  
 Input geometry:
                                   angstroms
  atom               x                 y                 z
  C1           -5.2660000000      3.2342000000     -0.4762000000 
  C2           -4.8327000000      1.8105000000     -0.4058000000 
  C3           -6.5502000000      3.5614000000     -0.2919000000 
  C4           -5.7490000000      0.8634000000     -0.1060000000 
  C5           -3.4062000000      1.4147000000     -0.6151000000 
  C6           -7.1694000000      1.2362000000      0.0907000000 
  C7           -5.3360000000     -0.5427000000      0.0549000000 
  C8           -7.5482000000      2.5149000000     -0.0032000000 
  C9           -3.0201000000      0.1425000000     -0.3529000000 
  C10          -2.3980000000      2.4181000000     -1.0492000000 
  C11          -4.0470000000     -0.8960000000     -0.0545000000 
  O12          -1.7127000000     -0.2379000000     -0.5373000000 
  Si13         -3.5676000000     -2.6838000000      0.2112000000 
  C14          -2.4907000000      3.0952000000     -2.2165000000 
  C15          -1.2621000000      2.6947000000     -0.1312000000 
  C16          -1.5380000000      4.1999000000     -2.4990000000 
  C17          -3.5122000000      2.7910000000     -3.2494000000 
  C18          -0.5879000000      4.5178000000     -1.6092000000 
  C19          -1.6814000000      4.9525000000     -3.7606000000 
  C20          -0.4367000000      3.7364000000     -0.3617000000 
  Si21          0.9477000000      4.2112000000      0.8015000000 
  O22          -1.0675000000      1.8660000000      0.9424000000 
  C23          -3.5766000000      3.5127000000     -4.3746000000 
  C24          -2.6402000000      4.6277000000     -4.6348000000 
  P25          -0.6116000000      0.3516000000      0.5307000000 
  O26          -0.4946000000     -0.4415000000      1.7838000000 
  N27           0.7389000000      0.5799000000     -0.3778000000 
  C28          -5.0735000000     -3.7479000000     -0.0521000000 
  C29          -2.3060000000     -3.1843000000     -1.0695000000 
  C30          -2.9459000000     -2.9036000000      1.9570000000 
  C31           2.5839000000      3.6542000000      0.1098000000 
  C32           0.9041000000      6.0654000000      0.9597000000 
  C33           0.7267000000      3.4270000000      2.4782000000 
  C34          -5.6141000000     -3.8561000000     -1.2779000000 
  C35          -5.7156000000     -4.4475000000      1.0887000000 
  C36          -2.3902000000     -2.6921000000     -2.3184000000 
  C37          -1.2424000000     -4.1695000000     -0.7531000000 
  C38          -2.8706000000     -1.8572000000      2.7977000000 
  C39          -2.5888000000     -4.2559000000      2.4539000000 
  C40           2.6770000000      3.1244000000     -1.1210000000 
  C41           3.8020000000      3.7644000000      0.9478000000 
  C42           2.0158000000      6.8087000000      0.8246000000 
  C43          -0.3979000000      6.7401000000      1.1844000000 
  C44          -0.0717000000      3.9798000000      3.4068000000 
  C45           1.3817000000      2.1282000000      2.7669000000 
  C46          -6.8162000000     -4.6881000000     -1.4924000000 
  C47          -7.3808000000     -5.3287000000     -0.4627000000 
  C48          -6.8065000000     -5.1983000000      0.8912000000 
  C49          -1.4311000000     -3.1197000000     -3.3579000000 
  C50          -0.4844000000     -4.0185000000     -3.0677000000 
  C51          -0.3918000000     -4.5750000000     -1.7040000000 
  C52          -2.3752000000     -2.0417000000      4.1775000000 
  C53          -2.0274000000     -3.2592000000      4.6081000000 
  C54          -2.1459000000     -4.4214000000      3.7061000000 
  C55           3.9807000000      2.6508000000     -1.6312000000 
  C56           5.0746000000      2.7450000000     -0.8669000000 
  C57           4.9814000000      3.3330000000      0.4841000000 
  C58           1.9443000000      8.2810000000      0.9338000000 
  C59           0.7689000000      8.8820000000      1.1521000000 
  C60          -0.4601000000      8.0739000000      1.2785000000 
  C61          -0.2785000000      3.3072000000      4.7070000000 
  C62           0.3149000000      2.1347000000      4.9590000000 
  C63           1.1804000000      1.5130000000      3.9384000000 
  C64           4.7341000000     -1.2681000000      4.5518000000 
  C65           4.5458000000     -2.1886000000      3.5265000000 
  C66           4.2963000000     -1.7481000000      2.2081000000 
  C67           4.2166000000     -0.3609000000      1.9383000000 
  C68           4.4324000000      0.5433000000      2.9671000000 
  C69           4.6883000000      0.0962000000      4.2700000000 
  C70           4.2579000000     -2.7589000000      1.1863000000 
  N71           4.0720000000     -2.5515000000     -0.0987000000 
  S72           4.2567000000     -3.8825000000     -1.2433000000 
  O73           5.1601000000     -4.8194000000     -0.5851000000 
  O74           2.9365000000     -4.2857000000     -1.7074000000 
  C75           5.0651000000     -2.9635000000     -2.5798000000 
  C76           4.3005000000     -2.6012000000     -3.6848000000 
  C77           4.9598000000     -1.8774000000     -4.6801000000 
  C78           6.3083000000     -1.5716000000     -4.5112000000 
  C79           6.9590000000     -1.9916000000     -3.3466000000 
  N80           6.3446000000     -2.6807000000     -2.3799000000 
  N81           1.0097000000     -2.6499000000      2.5858000000 
  C82           1.2685000000     -2.9652000000      3.8890000000 
  C83           1.9099000000     -4.1962000000      3.9257000000 
  C84           2.0464000000     -4.6295000000      2.5833000000 
  C85           1.4809000000     -3.6448000000      1.7745000000 
  H86          -4.5501000000      4.0233000000     -0.6617000000 
  H87          -6.8590000000      4.5976000000     -0.3436000000 
  H88          -7.9061000000      0.4744000000      0.3137000000 
  H89          -6.0924000000     -1.2787000000      0.2956000000 
  H90          -8.5858000000      2.7864000000      0.1423000000 
  H91          -4.2086000000      1.9730000000     -3.1177000000 
  H92           0.0951000000      5.3344000000     -1.8124000000 
  H93          -1.0109000000      5.7731000000     -3.9867000000 
  H94          -4.3266000000      3.2742000000     -5.1179000000 
  H95          -2.7332000000      5.1874000000     -5.5566000000 
  H96          -5.1843000000     -3.3372000000     -2.1239000000 
  H97          -5.3244000000     -4.3438000000      2.0909000000 
  H98          -3.1594000000     -1.9784000000     -2.5846000000 
  H99          -1.1348000000     -4.5698000000      0.2411000000 
  H100         -3.1544000000     -0.8625000000      2.4825000000 
  H101         -2.7111000000     -5.1217000000      1.8161000000 
  H102          1.8072000000      3.0268000000     -1.7539000000 
  H103          3.7404000000      4.1864000000      1.9432000000 
  H104          2.9765000000      6.3536000000      0.6344000000 
  H105         -1.3078000000      6.1579000000      1.2607000000 
  H106         -0.5837000000      4.9120000000      3.2214000000 
  H107          1.9911000000      1.6498000000      2.0134000000 
  H108         -7.2387000000     -4.7768000000     -2.4849000000 
  H109         -8.2620000000     -5.9377000000     -0.6180000000 
  H110         -7.2762000000     -5.7038000000      1.7250000000 
  H111         -1.4990000000     -2.7053000000     -4.3554000000 
  H112          0.2196000000     -4.3327000000     -3.8273000000 
  H113          0.3776000000     -5.2989000000     -1.4696000000 
  H114         -2.2905000000     -1.1876000000      4.8369000000 
  H115         -1.6613000000     -3.3954000000      5.6174000000 
  H116         -1.8878000000     -5.4092000000      4.0651000000 
  H117          4.0462000000      2.2190000000     -2.6214000000 
  H118          6.0284000000      2.3917000000     -1.2366000000 
  H119          5.8678000000      3.4081000000      1.1005000000 
  H120          2.8458000000      8.8717000000      0.8353000000 
  H121          0.7155000000      9.9601000000      1.2309000000 
  H122         -1.4118000000      8.5634000000      1.4401000000 
  H123         -0.9181000000      3.7627000000      5.4519000000 
  H124          0.1578000000      1.6374000000      5.9073000000 
  H125          1.6386000000      0.5521000000      4.1342000000 
  H126          4.9234000000     -1.6145000000      5.5624000000 
  H127          4.5917000000     -3.2519000000      3.7296000000 
  H128          3.9992000000     -0.0010000000      0.9374000000 
  H129          4.3957000000      1.6074000000      2.7666000000 
  H130          4.8482000000      0.8198000000      5.0636000000 
  H131          4.5543000000     -3.7671000000      1.4596000000 
  H132          3.2509000000     -2.8575000000     -3.7455000000 
  H133          4.4215000000     -1.5549000000     -5.5653000000 
  H134          6.8530000000     -1.0100000000     -5.2627000000 
  H135          8.0088000000     -1.7638000000     -3.1809000000 
  H136          0.4835000000     -1.8247000000      2.2645000000 
  H137          0.9651000000     -2.3049000000      4.6881000000 
  H138          2.2275000000     -4.7188000000      4.8175000000 
  H139          2.4704000000     -5.5619000000      2.2356000000 
  H140          1.3309000000     -3.5991000000      0.7064000000 
  S141          1.4289000000     -0.5354000000     -1.2168000000 
  O142          0.9795000000     -1.9213000000     -1.0104000000 
  C143          0.9965000000     -0.1487000000     -2.9977000000 
  O144          2.9229000000     -0.3662000000     -1.2180000000 
  F145          1.5573000000      0.9981000000     -3.3935000000 
  F146          1.4465000000     -1.1347000000     -3.7975000000 
  F147         -0.3262000000     -0.0544000000     -3.1425000000 
  H148          3.6440000000     -1.6710000000     -0.4960000000 
   
  principal moments of inertia:
        amu*angstrom^2:    22884.34122    23935.87921    31833.98187
                g*cm^2: 3.80003379E-36 3.97464576E-36 5.28615640E-36
   
  rotational constants:
               cm^(-1):      0.00073664      0.00070428      0.00052955
                   GHz:      0.02208405      0.02111387      0.01587546
   
  Molecular weight:    1308.28 amu
   
  Stoichiometry: Si2C73PN4H56S2O7F3
[running at reduced cpu priority]
  Molecular Point Group: C1      
  Point Group used: C1
  
  nuclear repulsion energy.......   20743.198668174 hartrees
 
 Non-default options chosen:
   SCF calculation type: DFT(m06-2x)                 
   DFT=M06-2X
   Solvation energy will be computed using PBF
     -solute cavity energy will not be included
     -surface area terms will not be included
   Highest accuracy cutoffs used in SCF
   Solvent: other                                                           
   Internal dielectric constant:    1.000
   Continuum dielectric constant:   2.380
   Solvent probe molecule radius:   2.760
  
 Temporary integer options set:
     73=  2
  
  atom       vdw   vdw2    cov     mass  grid  daf  charge   basis
  C1        1.949  1.900  0.770   12.000    Y    Y      Y    6-31g**
  C2        1.949  1.900  0.770   12.000    Y    Y      Y    6-31g**
  C3        1.949  1.900  0.770   12.000    Y    Y      Y    6-31g**
  C4        1.949  1.900  0.770   12.000    Y    Y      Y    6-31g**
  C5        1.949  1.900  0.770   12.000    Y    Y      Y    6-31g**
  C6        1.949  1.900  0.770   12.000    Y    Y      Y    6-31g**
  C7        1.949  1.900  0.770   12.000    Y    Y      Y    6-31g**
  C8        1.949  1.900  0.770   12.000    Y    Y      Y    6-31g**
  C9        1.949  1.900  0.770   12.000    Y    Y      Y    6-31g**
  C10       1.949  1.900  0.770   12.000    Y    Y      Y    6-31g**
  C11       1.949  1.900  0.770   12.000    Y    Y      Y    6-31g**
  O12       1.702  1.600  0.730   15.995    Y    Y      Y    6-31g**
  Si13      2.217  2.147  1.110   27.977    Y    Y      Y    6-31g**
  C14       1.949  1.900  0.770   12.000    Y    Y      Y    6-31g**
  C15       1.949  1.900  0.770   12.000    Y    Y      Y    6-31g**
  C16       1.949  1.900  0.770   12.000    Y    Y      Y    6-31g**
  C17       1.949  1.900  0.770   12.000    Y    Y      Y    6-31g**
  C18       1.949  1.900  0.770   12.000    Y    Y      Y    6-31g**
  C19       1.949  1.900  0.770   12.000    Y    Y      Y    6-31g**
  C20       1.949  1.900  0.770   12.000    Y    Y      Y    6-31g**
  Si21      2.217  2.147  1.110   27.977    Y    Y      Y    6-31g**
  O22       1.702  1.600  0.730   15.995    Y    Y      Y    6-31g**
  C23       1.949  1.900  0.770   12.000    Y    Y      Y    6-31g**
  C24       1.949  1.900  0.770   12.000    Y    Y      Y    6-31g**
  P25       2.147  2.074  1.060   30.974    Y    Y      Y    6-31g**
  O26       1.702  1.600  0.730   15.995    Y    Y      Y    6-31g**
  N27       1.831  1.600  0.750   14.003    Y    Y      Y    6-31g**
  C28       1.949  1.900  0.770   12.000    Y    Y      Y    6-31g**
  C29       1.949  1.900  0.770   12.000    Y    Y      Y    6-31g**
  C30       1.949  1.900  0.770   12.000    Y    Y      Y    6-31g**
  C31       1.949  1.900  0.770   12.000    Y    Y      Y    6-31g**
  C32       1.949  1.900  0.770   12.000    Y    Y      Y    6-31g**
  C33       1.949  1.900  0.770   12.000    Y    Y      Y    6-31g**
  C34       1.949  1.900  0.770   12.000    Y    Y      Y    6-31g**
  C35       1.949  1.900  0.770   12.000    Y    Y      Y    6-31g**
  C36       1.949  1.900  0.770   12.000    Y    Y      Y    6-31g**
  C37       1.949  1.900  0.770   12.000    Y    Y      Y    6-31g**
  C38       1.949  1.900  0.770   12.000    Y    Y      Y    6-31g**
  C39       1.949  1.900  0.770   12.000    Y    Y      Y    6-31g**
  C40       1.949  1.900  0.770   12.000    Y    Y      Y    6-31g**
  C41       1.949  1.900  0.770   12.000    Y    Y      Y    6-31g**
  C42       1.949  1.900  0.770   12.000    Y    Y      Y    6-31g**
  C43       1.949  1.900  0.770   12.000    Y    Y      Y    6-31g**
  C44       1.949  1.900  0.770   12.000    Y    Y      Y    6-31g**
  C45       1.949  1.900  0.770   12.000    Y    Y      Y    6-31g**
  C46       1.949  1.900  0.770   12.000    Y    Y      Y    6-31g**
  C47       1.949  1.900  0.770   12.000    Y    Y      Y    6-31g**
  C48       1.949  1.900  0.770   12.000    Y    Y      Y    6-31g**
  C49       1.949  1.900  0.770   12.000    Y    Y      Y    6-31g**
  C50       1.949  1.900  0.770   12.000    Y    Y      Y    6-31g**
  C51       1.949  1.900  0.770   12.000    Y    Y      Y    6-31g**
  C52       1.949  1.900  0.770   12.000    Y    Y      Y    6-31g**
  C53       1.949  1.900  0.770   12.000    Y    Y      Y    6-31g**
  C54       1.949  1.900  0.770   12.000    Y    Y      Y    6-31g**
  C55       1.949  1.900  0.770   12.000    Y    Y      Y    6-31g**
  C56       1.949  1.900  0.770   12.000    Y    Y      Y    6-31g**
  C57       1.949  1.900  0.770   12.000    Y    Y      Y    6-31g**
  C58       1.949  1.900  0.770   12.000    Y    Y      Y    6-31g**
  C59       1.949  1.900  0.770   12.000    Y    Y      Y    6-31g**
  C60       1.949  1.900  0.770   12.000    Y    Y      Y    6-31g**
  C61       1.949  1.900  0.770   12.000    Y    Y      Y    6-31g**
  C62       1.949  1.900  0.770   12.000    Y    Y      Y    6-31g**
  C63       1.949  1.900  0.770   12.000    Y    Y      Y    6-31g**
  C64       1.949  1.900  0.770   12.000    Y    Y      Y    6-31g**
  C65       1.949  1.900  0.770   12.000    Y    Y      Y    6-31g**
  C66       1.949  1.900  0.770   12.000    Y    Y      Y    6-31g**
  C67       1.949  1.900  0.770   12.000    Y    Y      Y    6-31g**
  C68       1.949  1.900  0.770   12.000    Y    Y      Y    6-31g**
  C69       1.949  1.900  0.770   12.000    Y    Y      Y    6-31g**
  C70       1.949  1.900  0.770   12.000    Y    Y      Y    6-31g**
  N71       1.831  1.600  0.750   14.003    Y    Y      Y    6-31g**
  S72       2.070  1.900  1.020   31.972    Y    Y      Y    6-31g**
  O73       1.702  1.600  0.730   15.995    Y    Y      Y    6-31g**
  O74       1.702  1.600  0.730   15.995    Y    Y      Y    6-31g**
  C75       1.949  1.900  0.770   12.000    Y    Y      Y    6-31g**
  C76       1.949  1.900  0.770   12.000    Y    Y      Y    6-31g**
  C77       1.949  1.900  0.770   12.000    Y    Y      Y    6-31g**
  C78       1.949  1.900  0.770   12.000    Y    Y      Y    6-31g**
  C79       1.949  1.900  0.770   12.000    Y    Y      Y    6-31g**
  N80       1.831  1.600  0.750   14.003    Y    Y      Y    6-31g**
  N81       1.831  1.600  0.750   14.003    Y    Y      Y    6-31g**
  C82       1.949  1.900  0.770   12.000    Y    Y      Y    6-31g**
  C83       1.949  1.900  0.770   12.000    Y    Y      Y    6-31g**
  C84       1.949  1.900  0.770   12.000    Y    Y      Y    6-31g**
  C85       1.949  1.900  0.770   12.000    Y    Y      Y    6-31g**
  H86       1.597  1.150  0.320    1.008    Y    Y      Y    6-31g**
  H87       1.597  1.150  0.320    1.008    Y    Y      Y    6-31g**
  H88       1.597  1.150  0.320    1.008    Y    Y      Y    6-31g**
  H89       1.597  1.150  0.320    1.008    Y    Y      Y    6-31g**
  H90       1.597  1.150  0.320    1.008    Y    Y      Y    6-31g**
  H91       1.597  1.150  0.320    1.008    Y    Y      Y    6-31g**
  H92       1.597  1.150  0.320    1.008    Y    Y      Y    6-31g**
  H93       1.597  1.150  0.320    1.008    Y    Y      Y    6-31g**
  H94       1.597  1.150  0.320    1.008    Y    Y      Y    6-31g**
  H95       1.597  1.150  0.320    1.008    Y    Y      Y    6-31g**
  H96       1.597  1.150  0.320    1.008    Y    Y      Y    6-31g**
  H97       1.597  1.150  0.320    1.008    Y    Y      Y    6-31g**
  H98       1.597  1.150  0.320    1.008    Y    Y      Y    6-31g**
  H99       1.597  1.150  0.320    1.008    Y    Y      Y    6-31g**
  H100      1.597  1.150  0.320    1.008    Y    Y      Y    6-31g**
  H101      1.597  1.150  0.320    1.008    Y    Y      Y    6-31g**
  H102      1.597  1.150  0.320    1.008    Y    Y      Y    6-31g**
  H103      1.597  1.150  0.320    1.008    Y    Y      Y    6-31g**
  H104      1.597  1.150  0.320    1.008    Y    Y      Y    6-31g**
  H105      1.597  1.150  0.320    1.008    Y    Y      Y    6-31g**
  H106      1.597  1.150  0.320    1.008    Y    Y      Y    6-31g**
  H107      1.597  1.150  0.320    1.008    Y    Y      Y    6-31g**
  H108      1.597  1.150  0.320    1.008    Y    Y      Y    6-31g**
  H109      1.597  1.150  0.320    1.008    Y    Y      Y    6-31g**
  H110      1.597  1.150  0.320    1.008    Y    Y      Y    6-31g**
  H111      1.597  1.150  0.320    1.008    Y    Y      Y    6-31g**
  H112      1.597  1.150  0.320    1.008    Y    Y      Y    6-31g**
  H113      1.597  1.150  0.320    1.008    Y    Y      Y    6-31g**
  H114      1.597  1.150  0.320    1.008    Y    Y      Y    6-31g**
  H115      1.597  1.150  0.320    1.008    Y    Y      Y    6-31g**
  H116      1.597  1.150  0.320    1.008    Y    Y      Y    6-31g**
  H117      1.597  1.150  0.320    1.008    Y    Y      Y    6-31g**
  H118      1.597  1.150  0.320    1.008    Y    Y      Y    6-31g**
  H119      1.597  1.150  0.320    1.008    Y    Y      Y    6-31g**
  H120      1.597  1.150  0.320    1.008    Y    Y      Y    6-31g**
  H121      1.597  1.150  0.320    1.008    Y    Y      Y    6-31g**
  H122      1.597  1.150  0.320    1.008    Y    Y      Y    6-31g**
  H123      1.597  1.150  0.320    1.008    Y    Y      Y    6-31g**
  H124      1.597  1.150  0.320    1.008    Y    Y      Y    6-31g**
  H125      1.597  1.150  0.320    1.008    Y    Y      Y    6-31g**
  H126      1.597  1.150  0.320    1.008    Y    Y      Y    6-31g**
  H127      1.597  1.150  0.320    1.008    Y    Y      Y    6-31g**
  H128      1.597  1.150  0.320    1.008    Y    Y      Y    6-31g**
  H129      1.597  1.150  0.320    1.008    Y    Y      Y    6-31g**
  H130      1.597  1.150  0.320    1.008    Y    Y      Y    6-31g**
  H131      1.597  1.150  0.320    1.008    Y    Y      Y    6-31g**
  H132      1.597  1.150  0.320    1.008    Y    Y      Y    6-31g**
  H133      1.597  1.150  0.320    1.008    Y    Y      Y    6-31g**
  H134      1.597  1.150  0.320    1.008    Y    Y      Y    6-31g**
  H135      1.597  1.150  0.320    1.008    Y    Y      Y    6-31g**
  H136      1.597  1.150  0.320    1.008    Y    Y      Y    6-31g**
  H137      1.597  1.150  0.320    1.008    Y    Y      Y    6-31g**
  H138      1.597  1.150  0.320    1.008    Y    Y      Y    6-31g**
  H139      1.597  1.150  0.320    1.008    Y    Y      Y    6-31g**
  H140      1.597  1.150  0.320    1.008    Y    Y      Y    6-31g**
  S141      2.070  1.900  1.020   31.972    Y    Y      Y    6-31g**
  O142      1.702  1.600  0.730   15.995    Y    Y      Y    6-31g**
  C143      1.949  1.900  0.770   12.000    Y    Y      Y    6-31g**
  O144      1.702  1.600  0.730   15.995    Y    Y      Y    6-31g**
  F145      1.736  1.682  0.720   18.998    Y    Y      Y    6-31g**
  F146      1.736  1.682  0.720   18.998    Y    Y      Y    6-31g**
  F147      1.736  1.682  0.720   18.998    Y    Y      Y    6-31g**
  H148      1.597  1.150  0.320    1.008    Y    Y      Y    6-31g**
  
  Peak memory usage:    768 Mb
  
  end of program pre
   
 Time(pre)  user:        0.9  user+sys:        0.9  wallclock:        4.0
  
  start of program onee
  
  smallest eigenvalue of S:    2.226E-04
  number of canonical orbitals.....         1673
  Peak memory usage:    900 Mb
  
  end of program onee
   
 Time(onee)  user:       17.9  user+sys:       17.9  wallclock:       48.0
  
  start of program hfig
  
  initial wavefunction generated automatically from atomic wavefunctions
 
  Irreducible     Total no   No of occupied orbitals 
  representation  orbitals   Shell_1  Shell_2    ...
  No Symm         1673        340
  ------------------------
  Orbital occupation/shell    1.000
 
  Peak memory usage:    833 Mb
  
  end of program hfig
   
 Time(hfig)  user:       30.3  user+sys:       30.3  wallclock:       79.5
  
  start of program probe
  
  Peak memory usage:    826 Mb
  
  end of program probe
   
 Time(probe)  user:       20.5  user+sys:       20.5  wallclock:       64.7
  
  start of program grid
  
   grid     grid set  grid #  grid sym
  ------    --------  ------  --------
  coarse        0        0        1
  medium        2        1        1
  fine          0        0        1
  ultrafine     4        2        1
  charge       -1        3        1
  gradient      4        2        1
  density       0        0        1
  DFT-fine    -13        4        1
  DFT-med.    -13        4        1
  DFT-grad    -13        4        1
  DFT-der2      0        0        1
  DFT-cphf      0        0        1
  LMP2-enrg     4        2        1
  LMP2-grad     2        1        1
  DFT-cphf2     0        0        1
  PBF-dens      0        0        1
  plotting      0        0        1
  Rel-grad    -17        0        1
  
  number of gridpoints: 
     atom        C1       C2       C3       C4       C5       C6       C7
  grid # 1       97      101       94      102      100       96       93
  grid # 2      338      360      337      366      357      336      335
  grid # 3       36       29       43       48       16       46       24
  grid # 4    48124    48124    48124    48124    48124    48124    48124
   
  number of gridpoints: 
     atom        C8       C9      C10      C11      O12     Si13      C14
  grid # 1       94       97      100      100      111      475      101
  grid # 2      336      357      353      357      435      475      356
  grid # 3       49       18       10        8       30       10       18
  grid # 4    48124    48124    48124    48124    47716    38542    48124
   
  number of gridpoints: 
     atom       C15      C16      C17      C18      C19      C20     Si21
  grid # 1       98      101       96       93       98      100      472
  grid # 2      359      366      337      331      339      359      472
  grid # 3       24       35       25       17       41        8        8
  grid # 4    48124    48124    48124    48124    48124    48124    38542
   
  number of gridpoints: 
     atom       O22      C23      C24      P25      O26      N27      C28
  grid # 1      112       95       94      443      116      107      101
  grid # 2      443      339      338      443      456      413      357
  grid # 3       65       37       45        6       45       21       18
  grid # 4    47716    48124    48124    38640    47716    47928    48124
   
  number of gridpoints: 
     atom       C29      C30      C31      C32      C33      C34      C35
  grid # 1      101       99      100       99      100       93       96
  grid # 2      359      360      356      358      358      336      339
  grid # 3       17       11        8       13       12       29       28
  grid # 4    48124    48124    48124    48124    48124    48124    48124
   
  number of gridpoints: 
     atom       C36      C37      C38      C39      C40      C41      C42
  grid # 1       92       97       92       94       93       94       93
  grid # 2      335      337      333      330      334      330      338
  grid # 3       16       26       18       12       23       11       35
  grid # 4    48124    48124    48124    48124    48124    48124    48124
   
  number of gridpoints: 
     atom       C43      C44      C45      C46      C47      C48      C49
  grid # 1       95       93       94       94       94       94       93
  grid # 2      335      335      331      336      336      336      332
  grid # 3       20       28       14       41       44       42       25
  grid # 4    48124    48124    48124    48124    48124    48124    48124
   
  number of gridpoints: 
     atom       C50      C51      C52      C53      C54      C55      C56
  grid # 1       93       94       93       93       93       93       93
  grid # 2      333      334      333      332      334      332      333
  grid # 3       28       30       27       26       21       30       29
  grid # 4    48124    48124    48124    48124    48124    48124    48124
   
  number of gridpoints: 
     atom       C57      C58      C59      C60      C61      C62      C63
  grid # 1       93       94       94       94       94       93       93
  grid # 2      333      336      336      336      337      335      334
  grid # 3       20       45       46       36       41       37       26
  grid # 4    48124    48124    48124    48124    48124    48124    48124
   
  number of gridpoints: 
     atom       C64      C65      C66      C67      C68      C69      C70
  grid # 1       96       96       98       96       96       96       95
  grid # 2      331      332      354      334      332      332      335
  grid # 3       35       31       36       34       29       29       19
  grid # 4    48124    48124    48124    48124    48124    48124    48124
   
  number of gridpoints: 
     atom       N71      S72      O73      O74      C75      C76      C77
  grid # 1       97      453      123      120       98       96       96
  grid # 2      355      453      501      478      359      330      332
  grid # 3       19       19      287      118       36       38       42
  grid # 4    47928    48492    47716    47716    48124    48124    48124
   
  number of gridpoints: 
     atom       C78      C79      N80      N81      C82      C83      C84
  grid # 1       96       96      113       97       93       94       94
  grid # 2      333      340      428      335      323      325      327
  grid # 3       44       43      135       15        9       14       15
  grid # 4    48124    48124    47928    47928    48124    48124    48124
   
  number of gridpoints: 
     atom       C85      H86      H87      H88      H89      H90      H91
  grid # 1       93      112      118      118      109      118      113
  grid # 2      321      434      452      446      428      453      435
  grid # 3       13      235      420      361      203      424      244
  grid # 4    48124    48426    48426    48426    48426    48426    48426
   
  number of gridpoints: 
     atom       H92      H93      H94      H95      H96      H97      H98
  grid # 1      113      118      118      118      111      111      111
  grid # 2      428      443      450      450      434      433      427
  grid # 3      211      363      410      417      225      236      174
  grid # 4    48426    48426    48426    48426    48426    48426    48426
   
  number of gridpoints: 
     atom       H99     H100     H101     H102     H103     H104     H105
  grid # 1      108      112      110      107      110      112      111
  grid # 2      416      428      425      418      431      431      427
  grid # 3      139      195      212      121      225      230      208
  grid # 4    48426    48426    48426    48426    48426    48426    48426
   
  number of gridpoints: 
     atom      H106     H107     H108     H109     H110     H111     H112
  grid # 1      111      105      118      118      118      117      116
  grid # 2      432      409      452      453      453      444      446
  grid # 3      226       60      420      425      423      349      333
  grid # 4    48426    48426    48426    48426    48426    48426    48426
   
  number of gridpoints: 
     atom      H113     H114     H115     H116     H117     H118     H119
  grid # 1      112      116      117      117      115      117      116
  grid # 2      436      448      445      450      439      450      448
  grid # 3      277      320      349      374      280      373      360
  grid # 4    48426    48426    48426    48426    48426    48426    48426
   
  number of gridpoints: 
     atom      H120     H121     H122     H123     H124     H125     H126
  grid # 1      118      118      118      118      117      109      117
  grid # 2      453      453      453      451      449      427      449
  grid # 3      418      424      422      417      369      166      391
  grid # 4    48426    48426    48426    48426    48426    48426    48426
   
  number of gridpoints: 
     atom      H127     H128     H129     H130     H131     H132     H133
  grid # 1      110      107      110      117      106      109      117
  grid # 2      431      416      418      449      421      421      452
  grid # 3      219      122      130      385      153      167      390
  grid # 4    48426    48426    48426    48426    48426    48426    48426
   
  number of gridpoints: 
     atom      H134     H135     H136     H137     H138     H139     H140
  grid # 1      118      117      101      111      116      116      106
  grid # 2      451      453      408      437      455      453      417
  grid # 3      415      444      113      230      386      357       83
  grid # 4    48426    48426    48426    48426    48426    48426    48426
   
  number of gridpoints: 
     atom      S141     O142     C143     O144     F145     F146     F147
  grid # 1      437      115       90      116      520      522      520
  grid # 2      437      464      318      451      520      522      520
  grid # 3        8       46        6       52      154      121      121
  grid # 4    48492    47716    48124    47716    47062    47062    47062
   
  number of gridpoints: 
     atom      H148    total
  grid # 1       98    18391
  grid # 2      395    57900
  grid # 3       69    19355
  grid # 4    48426  7104526
   
  Peak memory usage:    795 Mb
  
  end of program grid
   
 Time(grid)  user:     1132.2  user+sys:     1132.2  wallclock:     3514.7
  
  start of program rwr
  
  Peak memory usage:    814 Mb
  
  end of program rwr
   
 Time(rwr)  user:       72.4  user+sys:       72.4  wallclock:      246.3
  
  start of program scf
  
 number of electrons..........        680
 number of alpha electrons....        340
 number of beta electrons.....        340
 number of orbitals, total....       1673
 number of doubly-occ'd orbs..        340
 number of open shell orbs....          0
 number of occupied orbitals..        340
 number of virtual orbitals...       1333
 number of hamiltonians.......          1
 number of shells.............          1
 SCF type: DFT=M06-2X
 Energy computed with NOPS off.
  
       i  u  d  i  g                   
       t  p  i  c  r                                 RMS    maximum
       e  d  i  u  i                       energy  density   DIIS  
       r  t  s  t  d       total energy    change  change    error 
  
etot    1  N  N  1  U   -5562.73717785910           4.1E-03  1.4E-01
etot    2  N  Y  1  U   -5529.58385054209 -3.3E+01  1.7E-02  1.3E-01
etot    3  N  Y  1  U   -5276.71706592270 -2.5E+02  1.7E-02  3.8E-01
etot    4  N  Y  1  U   -5566.76886604872  2.9E+02  2.7E-03  8.1E-02
etot    5  N  Y  1  U   -5571.52377951083  4.8E+00  2.1E-03  4.2E-02
etot    6  N  Y  1  U   -5565.49149509322 -6.0E+00  1.5E-03  1.1E-01
etot    7  N  Y  1  U   -5575.41571420080  9.9E+00  3.4E-04  2.3E-02
etot    8  N  Y  1  U   -5575.53210517141  1.2E-01  1.3E-04  1.6E-02
etot    9  N  Y  1  U   -5575.55914935251  2.7E-02  4.8E-05  3.0E-03
etot   10  N  Y  1  U   -5575.56293906034  3.8E-03  1.7E-05  1.4E-03
etot   11  N  Y  1  U   -5575.56350780429  5.7E-04  9.7E-06  8.7E-04
etot   12  N  Y  1  U   -5575.56371826282  2.1E-04  7.8E-06  3.0E-04
etot   13  N  Y  1  U   -5575.56383653376  1.2E-04  4.7E-06  2.7E-04
etot   14  N  N  1  U   -5575.56386642933  3.0E-05  0.0E+00  0.0E+00
  
  
 Energy components, in hartrees:
   (A)  Nuclear repulsion............   20743.19866817437
   (E)  Total one-electron terms.....  -49015.05991421390
   (F)    Electron-nuclear...........  -54551.04442496900
   (H)    Kinetic....................    5535.98451075513
   (I)  Total two-electron terms.....   22696.29737961020
   (J)    Coulomb....................   23347.51692566944
   (K)    Exchange+Correlation.......    -651.21954605924
   (L)  Electronic energy............  -26318.76253460369  (E+I)
   (M)  -V/T.........................       2.00714947009  (-(A+F+I)/H)
   (N)  Total energy.................   -5575.56386642933  (A+L)
   (O)  Gas phase energy.............   -5575.56386642933
  
 SCFE: SCF energy: DFT(m06-2x)     -5575.56386642933 hartrees   iterations:  14
  
 
 HOMO energy:    -0.24375
 LUMO energy:    -0.08396
 
  Orbital energies (hartrees): 
   -90.19545   -90.15665   -78.20154   -67.00401   -66.99592   -25.29612
   -25.29582   -25.28974   -19.68138   -19.67939   -19.67890   -19.67751
   -19.64155   -19.62796   -19.59355   -14.86196   -14.81175   -14.77506
   -14.73958   -10.80932   -10.68525   -10.65411   -10.62791   -10.61697
   -10.61653   -10.60946   -10.60701   -10.60277   -10.60082   -10.59390
   -10.58755   -10.58728   -10.57985   -10.57511   -10.56625   -10.56452
   -10.56328   -10.56129   -10.55910   -10.55574   -10.55550   -10.55433
   -10.55214   -10.55112   -10.55065   -10.55002   -10.54944   -10.54897
   -10.54895   -10.54865   -10.54825   -10.54797   -10.54791   -10.54787
   -10.54777   -10.54739   -10.54686   -10.54639   -10.54606   -10.54599
   -10.54432   -10.54387   -10.54133   -10.54122   -10.53894   -10.53832
   -10.53818   -10.53787   -10.53656   -10.53587   -10.53523   -10.53506
   -10.53460   -10.53448   -10.53361   -10.53311   -10.53241   -10.53182
   -10.53033   -10.53020   -10.52983   -10.52810   -10.52785   -10.52676
   -10.52329   -10.52235   -10.52147   -10.52091   -10.52088   -10.51828
   -10.51622   -10.51226    -8.50670    -8.46545    -6.98110    -6.42917
    -6.42765    -6.42677    -6.38741    -6.38701    -6.38661    -5.53507
    -5.52703    -5.09954    -5.09844    -5.09704    -3.84479    -3.84459
    -3.84441    -3.83692    -3.83650    -3.83622    -1.46004    -1.37024
    -1.36726    -1.27113    -1.22623    -1.21685    -1.17676    -1.15953
    -1.11081    -1.10436    -1.10127    -1.07983    -1.05850    -0.99362
    -0.99140    -0.97665    -0.96237    -0.94522    -0.94252    -0.93938
    -0.93376    -0.92924    -0.92618    -0.92090    -0.91918    -0.91666
    -0.90636    -0.89849    -0.88527    -0.87199    -0.84871    -0.84566
    -0.84072    -0.83603    -0.83434    -0.83281    -0.83122    -0.82871
    -0.82610    -0.82555    -0.82419    -0.82416    -0.82002    -0.81971
    -0.81723    -0.81714    -0.81365    -0.81053    -0.80718    -0.79625
    -0.79189    -0.77890    -0.75996    -0.75887    -0.73711    -0.72657
    -0.71549    -0.70878    -0.70565    -0.69886    -0.69068    -0.68772
    -0.68471    -0.68356    -0.67827    -0.67555    -0.67109    -0.67011
    -0.66849    -0.66792    -0.66486    -0.66417    -0.65832    -0.65776
    -0.65295    -0.65144    -0.64950    -0.64424    -0.64407    -0.64210
    -0.63946    -0.63219    -0.62980    -0.62538    -0.61948    -0.60396
    -0.60118    -0.60092    -0.59521    -0.59266    -0.59104    -0.58820
    -0.58639    -0.57854    -0.57632    -0.57328    -0.56999    -0.56713
    -0.56670    -0.56499    -0.56197    -0.56196    -0.55800    -0.55452
    -0.55328    -0.54518    -0.54207    -0.53997    -0.53499    -0.53297
    -0.53100    -0.52640    -0.52510    -0.52171    -0.52128    -0.51889
    -0.51585    -0.51521    -0.51164    -0.51067    -0.50907    -0.50820
    -0.50724    -0.50589    -0.50550    -0.50407    -0.50030    -0.49836
    -0.49738    -0.49670    -0.49367    -0.49233    -0.49083    -0.48873
    -0.48803    -0.48656    -0.48506    -0.48352    -0.48112    -0.48073
    -0.47956    -0.47841    -0.47643    -0.47271    -0.47252    -0.46855
    -0.46769    -0.46507    -0.46173    -0.45877    -0.45849    -0.45589
    -0.45113    -0.45052    -0.44788    -0.44741    -0.44423    -0.44163
    -0.44027    -0.43861    -0.43506    -0.43285    -0.43088    -0.42882
    -0.42695    -0.42400    -0.42300    -0.42190    -0.42059    -0.41817
    -0.41766    -0.41618    -0.41404    -0.41160    -0.40850    -0.40653
    -0.40313    -0.40195    -0.40024    -0.39627    -0.39330    -0.39093
    -0.38927    -0.38695    -0.38431    -0.38311    -0.38146    -0.38083
    -0.37876    -0.37739    -0.37584    -0.37367    -0.36876    -0.36825
    -0.36637    -0.36322    -0.36020    -0.35865    -0.35131    -0.34512
    -0.33871    -0.33746    -0.33638    -0.33514    -0.33242    -0.33046
    -0.32948    -0.32717    -0.32421    -0.31839    -0.29872    -0.29816
    -0.29697    -0.29225    -0.29180    -0.29117    -0.28471    -0.28357
    -0.28304    -0.28166    -0.28101    -0.28081    -0.27763    -0.27451
    -0.27018    -0.26753    -0.25062    -0.24375    -0.08396    -0.04202
    -0.02088    -0.01609     0.00552     0.00747     0.01647     0.02357
     0.02586     0.02883
 
  Peak memory usage:   1028 Mb
  
  end of program scf
   
 Time(scf)  user:    39677.8  user+sys:    39677.8  wallclock:   125291.6
  
  start of program ch
  
  gridpoints used for charge fit        16770
    out of a possible maximum of        19355
  
   Electrostatic potential fitting constrained to reproduce
     total charge:                yes
     dipole moment:               no 
     traceless quadrupole moment: no 
     traceless octapole moment:   no 
  
  Atomic charges from electrostatic potential: 
   
 Atom       C1           C2           C3           C4           C5      
 Charge   -0.11337     -0.04587     -0.18477      0.22105      0.17536
   
 Atom       C6           C7           C8           C9           C10     
 Charge   -0.24247     -0.36827     -0.08707     -0.08956     -0.27179
   
 Atom       C11          O12          Si13         C14          C15     
 Charge    0.12483     -0.14066     -0.09606      0.09962      0.22426
   
 Atom       C16          C17          C18          C19          C20     
 Charge    0.28896     -0.14639     -0.49844     -0.26819      0.10611
   
 Atom       Si21         O22          C23          C24          P25     
 Charge   -0.01499     -0.25271     -0.17192     -0.09697      0.74078
   
 Atom       O26          N27          C28          C29          C30     
 Charge   -0.42321     -0.55865      0.19644      0.00455      0.19870
   
 Atom       C31          C32          C33          C34          C35     
 Charge   -0.02637     -0.06758      0.05407     -0.20624     -0.22857
   
 Atom       C36          C37          C38          C39          C40     
 Charge   -0.09961     -0.10203     -0.20107     -0.24520     -0.08078
   
 Atom       C41          C42          C43          C44          C45     
 Charge    0.01215      0.00519     -0.05200     -0.13049     -0.12488
   
 Atom       C46          C47          C48          C49          C50     
 Charge   -0.10570     -0.17334     -0.08875     -0.16667     -0.13308
   
 Atom       C51          C52          C53          C54          C55     
 Charge   -0.11268     -0.09761     -0.17772     -0.05360     -0.12805
   
 Atom       C56          C57          C58          C59          C60     
 Charge   -0.11666     -0.20182     -0.22300     -0.07543     -0.18892
   
 Atom       C61          C62          C63          C64          C65     
 Charge   -0.15060     -0.15452     -0.08217     -0.14337     -0.15345
   
 Atom       C66          C67          C68          C69          C70     
 Charge    0.19450     -0.25044     -0.01006     -0.08822      0.02646
   
 Atom       N71          S72          O73          O74          C75     
 Charge   -0.28116      0.69113     -0.40053     -0.39471      0.59357
   
 Atom       C76          C77          C78          C79          N80     
 Charge   -0.48947      0.25068     -0.49367      0.45833     -0.64573
   
 Atom       N81          C82          C83          C84          C85     
 Charge    0.12402     -0.13609     -0.29638     -0.18344     -0.18435
   
 Atom       H86          H87          H88          H89          H90     
 Charge    0.12480      0.14455      0.14673      0.18321      0.12727
   
 Atom       H91          H92          H93          H94          H95     
 Charge    0.12323      0.22590      0.15450      0.14528      0.12780
   
 Atom       H96          H97          H98          H99          H100    
 Charge    0.12756      0.12006      0.12148      0.07466      0.13317
   
 Atom       H101         H102         H103         H104         H105    
 Charge    0.15146      0.11906      0.07933      0.06425      0.11293
   
 Atom       H106         H107         H108         H109         H110    
 Charge    0.10802      0.11886      0.12544      0.13505      0.12434
   
 Atom       H111         H112         H113         H114         H115    
 Charge    0.12154      0.12997      0.12295      0.12254      0.12719
   
 Atom       H116         H117         H118         H119         H120    
 Charge    0.10687      0.11792      0.11537      0.13016      0.14696
   
 Atom       H121         H122         H123         H124         H125    
 Charge    0.12163      0.13489      0.13395      0.13078      0.08509
   
 Atom       H126         H127         H128         H129         H130    
 Charge    0.14865      0.14088      0.20842      0.07478      0.13711
   
 Atom       H131         H132         H133         H134         H135    
 Charge    0.17671      0.20426      0.10076      0.20531      0.05309
   
 Atom       H136         H137         H138         H139         H140    
 Charge    0.11820      0.14914      0.16402      0.13846      0.20273
   
 Atom       S141         O142         C143         O144         F145    
 Charge    0.80725     -0.45027      0.32853     -0.55257     -0.12109
   
 Atom       F146         F147         H148    
 Charge   -0.11309     -0.09639      0.33518
  
  sum of atomic charges:     0.000000
   
 RMS Error   1.04E-03 hartrees
 
  Peak memory usage:    816 Mb
  
  end of program ch
   
 Time(ch)  user:       19.0  user+sys:       19.0  wallclock:       59.7
  
  start of program post
  
  Writing input files for PBF
  Peak memory usage:    759 Mb
  
  end of program post
   
 Time(post)  user:        0.8  user+sys:        0.8  wallclock:        3.6

  start of program pbf

Pbf Version 4.10

Molecular surface area:      853.20852   [A2]
Reaction field energy:       -17.06613   [kT]
  Peak memory usage: 723 Mb

  end of program pbf

 Time(pbf)  user:       12.9  user+sys:       13.1  wallclock:       35.5
  
  start of program solv
  
   number of surface charges from PBF   13562
   sum of surface charges     -0.00027
   
  nuclear repulsion energy.......   20743.198668174 hartrees
  Peak memory usage:    894 Mb
  
  end of program solv
   
 Time(solv)  user:       37.9  user+sys:       37.9  wallclock:      122.0
  
  start of program scf
  
 Energy computed with NOPS off.
  
       i  u  d  i  g                   
       t  p  i  c  r                                 RMS    maximum
       e  d  i  u  i                       energy  density   DIIS  
       r  t  s  t  d       total energy    change  change    error 
  
etot    1  N  N  1  U   -5575.59957623643           5.1E-05  1.5E-03
etot    2  N  Y  1  U   -5575.60037140069  8.0E-04  1.5E-05  1.2E-03
etot    3  N  Y  1  U   -5575.60058847138  2.2E-04  4.8E-06  7.0E-04
etot    4  N  N  1  U   -5575.60063009229  4.2E-05  0.0E+00  0.0E+00
  
  
 Energy components, in hartrees:
   (A)  Total zero-electron terms....   20745.78311554388
   (B)    Nuclear-nuclear............   20743.19866817437
   (C)    Nuclear-solvent............       2.58444736951
   (E)  Total one-electron terms.....  -49019.04175598740
   (F)    Electron-nuclear...........  -54552.44646568612
   (G)    Electron-solvent...........      -2.62223674329
   (H)    Kinetic....................    5536.02694644201
   (I)  Total two-electron terms.....   22697.65801035124
   (J)    Coulomb....................   23348.89594738980
   (K)    Exchange+Correlation.......    -651.23793703856
   (L)  Electronic energy............  -26321.38374563617  (E+I)
   (N)  Total quantum mech. energy...   -5575.60063009229  (A+L)
   (O)  Gas phase energy.............   -5575.56386642933
   (P)  Solution phase energy........   -5575.58173540540  (Q+R+S)
   (Q)    Total solute energy........   -5575.56284071851  (N-C-G)
   (R)    Total solvent energy.......      -0.01889468689  (C/2+G/2)
   (S)    Solute cavity energy.......       0.00000000000
   (U)  Reorganization energy........       0.00102571082  (Q-O)
   (V)  Solvation energy.............      -0.01786897607  (P-O)
  
 SCFE:  Solution phase energy: DFT(m06-2x)      -5575.58173540540 hartrees
        SCF iterations:   4
  
 
 HOMO energy:    -0.24424
 LUMO energy:    -0.08111
 
  Orbital energies (hartrees): 
   -90.19633   -90.15869   -78.20459   -67.00692   -67.00072   -25.29870
   -25.29724   -25.29292   -19.68460   -19.68244   -19.68030   -19.67880
   -19.64213   -19.62887   -19.59564   -14.85997   -14.80488   -14.77571
   -14.74250   -10.81163   -10.68235   -10.64975   -10.62070   -10.62038
   -10.62017   -10.60229   -10.60176   -10.59723   -10.59468   -10.58943
   -10.58454   -10.58371   -10.57488   -10.57250   -10.56951   -10.56950
   -10.56720   -10.56619   -10.56163   -10.56013   -10.55793   -10.55628
   -10.55459   -10.55262   -10.55248   -10.55196   -10.55145   -10.55129
   -10.55071   -10.55055   -10.55053   -10.55051   -10.55024   -10.54990
   -10.54980   -10.54952   -10.54937   -10.54899   -10.54871   -10.54794
   -10.54654   -10.54650   -10.54597   -10.54579   -10.54368   -10.54303
   -10.54191   -10.54089   -10.54056   -10.53888   -10.53851   -10.53828
   -10.53820   -10.53763   -10.53763   -10.53708   -10.53605   -10.53537
   -10.53468   -10.53431   -10.53355   -10.53293   -10.53193   -10.53033
   -10.52831   -10.52734   -10.52688   -10.52439   -10.52076   -10.52061
   -10.51848   -10.51760    -8.50748    -8.46743    -6.98414    -6.42992
    -6.42850    -6.42750    -6.38939    -6.38900    -6.38861    -5.53798
    -5.53183    -5.10258    -5.10148    -5.10007    -3.84769    -3.84750
    -3.84732    -3.84171    -3.84130    -3.84103    -1.46246    -1.37257
    -1.36978    -1.27233    -1.22837    -1.21953    -1.18027    -1.16122
    -1.11056    -1.10226    -1.09756    -1.08238    -1.05897    -0.99588
    -0.98820    -0.98028    -0.96605    -0.94510    -0.94160    -0.93917
    -0.93861    -0.93227    -0.93049    -0.92453    -0.92012    -0.91639
    -0.90951    -0.89431    -0.88873    -0.86845    -0.85207    -0.84609
    -0.84324    -0.83898    -0.83660    -0.83552    -0.83465    -0.83069
    -0.82874    -0.82741    -0.82671    -0.82554    -0.82399    -0.82248
    -0.82149    -0.82003    -0.81818    -0.81541    -0.81226    -0.79940
    -0.79209    -0.77563    -0.76197    -0.75203    -0.73465    -0.72815
    -0.71158    -0.70882    -0.70563    -0.70168    -0.69426    -0.69041
    -0.68751    -0.68623    -0.68037    -0.67819    -0.67448    -0.67289
    -0.67054    -0.66919    -0.66635    -0.66494    -0.66223    -0.65997
    -0.65611    -0.65539    -0.65389    -0.64731    -0.64652    -0.64496
    -0.63742    -0.63287    -0.62849    -0.62541    -0.62272    -0.60632
    -0.60164    -0.59827    -0.59658    -0.59626    -0.58865    -0.58554
    -0.58465    -0.58002    -0.57918    -0.57620    -0.57231    -0.57038
    -0.56833    -0.56593    -0.56365    -0.56226    -0.55915    -0.55706
    -0.54924    -0.54729    -0.54382    -0.54188    -0.53701    -0.53482
    -0.53130    -0.52718    -0.52700    -0.52443    -0.52225    -0.51723
    -0.51558    -0.51350    -0.51179    -0.51109    -0.51004    -0.50901
    -0.50712    -0.50615    -0.50465    -0.50350    -0.50172    -0.50077
    -0.50030    -0.49894    -0.49700    -0.49508    -0.49445    -0.49124
    -0.49048    -0.48941    -0.48887    -0.48713    -0.48280    -0.48185
    -0.48129    -0.48061    -0.47710    -0.47536    -0.47278    -0.47132
    -0.47099    -0.46693    -0.46441    -0.46137    -0.46040    -0.45787
    -0.45349    -0.45141    -0.45039    -0.44786    -0.44638    -0.44395
    -0.44280    -0.43761    -0.43722    -0.43502    -0.43314    -0.42917
    -0.42753    -0.42623    -0.42445    -0.42357    -0.42262    -0.42085
    -0.41922    -0.41773    -0.41601    -0.41487    -0.41060    -0.40998
    -0.40699    -0.40419    -0.40291    -0.39889    -0.39624    -0.39264
    -0.39068    -0.39011    -0.38764    -0.38550    -0.38323    -0.38141
    -0.38082    -0.37880    -0.37710    -0.37626    -0.37265    -0.37139
    -0.36478    -0.36296    -0.36251    -0.35437    -0.35356    -0.34859
    -0.34177    -0.34025    -0.33938    -0.33472    -0.33254    -0.33221
    -0.33127    -0.32954    -0.32770    -0.32191    -0.30198    -0.30121
    -0.29931    -0.29764    -0.29690    -0.29451    -0.28845    -0.28715
    -0.28693    -0.28490    -0.28434    -0.28332    -0.28117    -0.28006
    -0.27566    -0.27151    -0.25391    -0.24424    -0.08111    -0.03694
    -0.01926    -0.01431     0.00121     0.01056     0.01319     0.02008
     0.02230     0.02339
 
  Peak memory usage:   1029 Mb
  
  end of program scf
   
 Time(scf)  user:     8471.2  user+sys:     8471.2  wallclock:    26788.7
  
  start of program sole
  
    SCRF                   solvation energy
  iteration          Hartrees            kcal/mol
     0               0.0000000            0.0000
     1              -0.0178690          -11.2130
  
  solvation energy not yet converged... 
  
  Peak memory usage:    813 Mb
  
  end of program sole
   
 Time(sole)  user:        0.1  user+sys:        0.1  wallclock:        0.5
  
  start of program ch
  
  gridpoints used for charge fit        16770
    out of a possible maximum of        16770
  
   Electrostatic potential fitting constrained to reproduce
     total charge:                yes
     dipole moment:               no 
     traceless quadrupole moment: no 
     traceless octapole moment:   no 
  
  Atomic charges from electrostatic potential: 
   
 Atom       C1           C2           C3           C4           C5      
 Charge   -0.11521     -0.04667     -0.19290      0.22407      0.17917
   
 Atom       C6           C7           C8           C9           C10     
 Charge   -0.25204     -0.38835     -0.09162     -0.10514     -0.27208
   
 Atom       C11          O12          Si13         C14          C15     
 Charge    0.14877     -0.12621     -0.12012      0.10017      0.21017
   
 Atom       C16          C17          C18          C19          C20     
 Charge    0.29431     -0.14848     -0.51326     -0.27666      0.12597
   
 Atom       Si21         O22          C23          C24          P25     
 Charge   -0.02728     -0.23977     -0.17917     -0.10308      0.71107
   
 Atom       O26          N27          C28          C29          C30     
 Charge   -0.40925     -0.54480      0.19660      0.01092      0.21673
   
 Atom       C31          C32          C33          C34          C35     
 Charge   -0.02042     -0.07392      0.05339     -0.21007     -0.23183
   
 Atom       C36          C37          C38          C39          C40     
 Charge   -0.10700     -0.10955     -0.21769     -0.25037     -0.09129
   
 Atom       C41          C42          C43          C44          C45     
 Charge    0.01389      0.00719     -0.04800     -0.13679     -0.12277
   
 Atom       C46          C47          C48          C49          C50     
 Charge   -0.11255     -0.18074     -0.09591     -0.17185     -0.14236
   
 Atom       C51          C52          C53          C54          C55     
 Charge   -0.12043     -0.10022     -0.19044     -0.05485     -0.13149
   
 Atom       C56          C57          C58          C59          C60     
 Charge   -0.12619     -0.20873     -0.23537     -0.07926     -0.19939
   
 Atom       C61          C62          C63          C64          C65     
 Charge   -0.16061     -0.15873     -0.08480     -0.14270     -0.16119
   
 Atom       C66          C67          C68          C69          C70     
 Charge    0.20599     -0.26845     -0.00820     -0.08967      0.01964
   
 Atom       N71          S72          O73          O74          C75     
 Charge   -0.27282      0.70581     -0.42298     -0.40567      0.61237
   
 Atom       C76          C77          C78          C79          N80     
 Charge   -0.50408      0.26077     -0.49861      0.47645     -0.68606
   
 Atom       N81          C82          C83          C84          C85     
 Charge    0.14445     -0.13785     -0.30770     -0.18873     -0.20153
   
 Atom       H86          H87          H88          H89          H90     
 Charge    0.12734      0.15310      0.15339      0.19093      0.13565
   
 Atom       H91          H92          H93          H94          H95     
 Charge    0.12630      0.23303      0.16191      0.15307      0.13547
   
 Atom       H96          H97          H98          H99          H100    
 Charge    0.13138      0.12034      0.12683      0.07858      0.13629
   
 Atom       H101         H102         H103         H104         H105    
 Charge    0.15398      0.12127      0.08183      0.06349      0.11552
   
 Atom       H106         H107         H108         H109         H110    
 Charge    0.11056      0.11893      0.13354      0.14323      0.13240
   
 Atom       H111         H112         H113         H114         H115    
 Charge    0.12736      0.13699      0.12545      0.12835      0.13477
   
 Atom       H116         H117         H118         H119         H120    
 Charge    0.11074      0.11976      0.12319      0.13829      0.15577
   
 Atom       H121         H122         H123         H124         H125    
 Charge    0.12950      0.14260      0.14112      0.13676      0.08607
   
 Atom       H126         H127         H128         H129         H130    
 Charge    0.15640      0.14980      0.21949      0.07440      0.14450
   
 Atom       H131         H132         H133         H134         H135    
 Charge    0.18662      0.20690      0.10799      0.21608      0.06112
   
 Atom       H136         H137         H138         H139         H140    
 Charge    0.10655      0.15320      0.17010      0.14250      0.20663
   
 Atom       S141         O142         C143         O144         F145    
 Charge    0.79153     -0.43697      0.33006     -0.54707     -0.12237
   
 Atom       F146         F147         H148    
 Charge   -0.11180     -0.09783      0.32112
  
  sum of atomic charges:     0.000000
   
 RMS Error   1.05E-03 hartrees
 
  Peak memory usage:    816 Mb
  
  end of program ch
   
 Time(ch)  user:       19.1  user+sys:       19.1  wallclock:       61.2
  
  start of program post
  
  Writing input files for PBF
  Peak memory usage:    759 Mb
  
  end of program post
   
 Time(post)  user:        0.8  user+sys:        0.8  wallclock:        3.3

  start of program pbf

Pbf Version 4.10

Molecular surface area:      853.20852   [A2]
Reaction field energy:       -19.52857   [kT]
  Peak memory usage: 723 Mb

  end of program pbf

 Time(pbf)  user:       13.3  user+sys:       13.4  wallclock:       42.8
  
  start of program solv
  
   number of surface charges from PBF   13562
   sum of surface charges     -0.00029
   
  nuclear repulsion energy.......   20743.198668174 hartrees
  Peak memory usage:    894 Mb
  
  end of program solv
   
 Time(solv)  user:       37.8  user+sys:       37.8  wallclock:      112.1
  
  start of program scf
  
 Energy computed with NOPS off.
  
       i  u  d  i  g                   
       t  p  i  c  r                                 RMS    maximum
       e  d  i  u  i                       energy  density   DIIS  
       r  t  s  t  d       total energy    change  change    error 
  
etot    1  N  N  1  U   -5575.60324347145           6.0E-06  1.5E-04
etot    2  N  N  1  U   -5575.60325382685  1.0E-05  0.0E+00  0.0E+00
  
  
 Energy components, in hartrees:
   (A)  Total zero-electron terms....   20746.06471787727
   (B)    Nuclear-nuclear............   20743.19866817437
   (C)    Nuclear-solvent............       2.86604970290
   (E)  Total one-electron terms.....  -49019.60176922037
   (F)    Electron-nuclear...........  -54552.76030443756
   (G)    Electron-solvent...........      -2.90673558071
   (H)    Kinetic....................    5536.06527079789
   (I)  Total two-electron terms.....   22697.93379751626
   (J)    Coulomb....................   23349.17830855908
   (K)    Exchange+Correlation.......    -651.24451104282
   (L)  Electronic energy............  -26321.66797170412  (E+I)
   (N)  Total quantum mech. energy...   -5575.60325382685  (A+L)
   (O)  Gas phase energy.............   -5575.56386642933
   (P)  Solution phase energy........   -5575.58291088795  (Q+R+S)
   (Q)    Total solute energy........   -5575.56256794904  (N-C-G)
   (R)    Total solvent energy.......      -0.02034293890  (C/2+G/2)
   (S)    Solute cavity energy.......       0.00000000000
   (U)  Reorganization energy........       0.00129848028  (Q-O)
   (V)  Solvation energy.............      -0.01904445862  (P-O)
  
 SCFE:  Solution phase energy: DFT(m06-2x)      -5575.58291088795 hartrees
        SCF iterations:   2
  
 
 HOMO energy:    -0.26653
 LUMO energy:    -0.08136
 
  Orbital energies (hartrees): 
   -74.61138   -50.95192   -49.46268   -48.30327   -47.21905   -41.69558
   -37.79419   -36.81950   -35.30635   -25.78011   -22.07025   -21.53082
   -21.23379   -17.75272   -17.70091   -16.55025   -16.24343   -15.56974
   -14.86705   -14.64419   -13.97285   -12.70406   -12.38452   -12.06296
   -11.82880   -11.81452   -11.62654   -11.52297   -11.19938   -11.07310
   -10.89750   -10.88556   -10.72553   -10.72027   -10.71799   -10.66231
   -10.64890   -10.60061   -10.59280   -10.57932   -10.57546   -10.57007
   -10.56203   -10.55640   -10.54753   -10.54454   -10.54191   -10.54033
   -10.53582   -10.53070   -10.52933   -10.52894   -10.52758   -10.52092
   -10.51998   -10.51610   -10.51328   -10.51220   -10.50840   -10.50653
   -10.50439   -10.49510   -10.47372   -10.46328   -10.45489   -10.44991
   -10.44691   -10.41809   -10.40563   -10.39634   -10.39261   -10.37530
   -10.37309   -10.34756   -10.34284   -10.28700   -10.26002   -10.15537
   -10.12892   -10.12040   -10.10536   -10.08504   -10.06673   -10.04174
    -9.94628    -9.93017    -9.93002    -9.81305    -9.76715    -9.65583
    -9.56030    -9.54956    -9.37139    -9.26220    -9.23837    -9.18881
    -8.98425    -8.23475    -8.14546    -8.06444    -7.86085    -7.72497
    -7.65695    -7.61020    -7.43722    -7.29448    -7.21520    -7.11309
    -7.05503    -5.94283    -5.88317    -5.50257    -2.78994    -1.68545
    -1.50047    -1.23456    -1.23356    -1.15835    -1.11827    -1.00021
    -0.96222    -0.96209    -0.95895    -0.95451    -0.94629    -0.91898
    -0.91677    -0.91406    -0.90822    -0.89653    -0.89003    -0.88465
    -0.88350    -0.87126    -0.86781    -0.86779    -0.86668    -0.85882
    -0.83939    -0.83532    -0.83011    -0.82922    -0.82806    -0.82407
    -0.80426    -0.79792    -0.79347    -0.78800    -0.78514    -0.78385
    -0.77793    -0.76260    -0.76019    -0.75670    -0.75583    -0.75546
    -0.73201    -0.73169    -0.73014    -0.72976    -0.72327    -0.71919
    -0.71027    -0.70570    -0.70340    -0.70339    -0.70328    -0.69682
    -0.69195    -0.68119    -0.67642    -0.67552    -0.67113    -0.67069
    -0.66775    -0.66685    -0.66540    -0.65518    -0.64424    -0.64028
    -0.63985    -0.63919    -0.63663    -0.62273    -0.62259    -0.62167
    -0.61876    -0.61844    -0.61794    -0.61349    -0.61185    -0.61012
    -0.60886    -0.60567    -0.60241    -0.59913    -0.59539    -0.59537
    -0.59351    -0.58922    -0.58916    -0.58821    -0.58807    -0.58738
    -0.58665    -0.58438    -0.58373    -0.58252    -0.57817    -0.57704
    -0.57678    -0.57381    -0.57052    -0.56902    -0.56837    -0.56833
    -0.56553    -0.56536    -0.56047    -0.55903    -0.55777    -0.55658
    -0.55131    -0.55040    -0.54362    -0.54308    -0.54214    -0.53788
    -0.53730    -0.53636    -0.53531    -0.53356    -0.53237    -0.53057
    -0.52787    -0.52746    -0.52723    -0.52705    -0.52570    -0.52218
    -0.52156    -0.52039    -0.51944    -0.51807    -0.51697    -0.51427
    -0.51407    -0.51139    -0.50554    -0.50447    -0.50247    -0.50227
    -0.50134    -0.49913    -0.49877    -0.49261    -0.49253    -0.49238
    -0.49146    -0.49114    -0.48907    -0.48870    -0.48851    -0.48836
    -0.48828    -0.48532    -0.48530    -0.48522    -0.48508    -0.48474
    -0.48414    -0.48113    -0.48008    -0.47775    -0.47646    -0.47599
    -0.47550    -0.47546    -0.47229    -0.47141    -0.47129    -0.47011
    -0.46960    -0.46880    -0.46863    -0.46805    -0.46802    -0.46775
    -0.46659    -0.46548    -0.46302    -0.46237    -0.46203    -0.45645
    -0.45539    -0.45284    -0.45073    -0.45041    -0.45026    -0.44861
    -0.44786    -0.44660    -0.44467    -0.44423    -0.44343    -0.44107
    -0.44075    -0.43940    -0.43607    -0.43555    -0.43405    -0.43392
    -0.42995    -0.42828    -0.42734    -0.42633    -0.42079    -0.41531
    -0.41295    -0.40890    -0.40253    -0.40247    -0.39942    -0.39502
    -0.39191    -0.38209    -0.38107    -0.37539    -0.37198    -0.36999
    -0.36603    -0.36058    -0.35998    -0.35561    -0.35348    -0.34554
    -0.33380    -0.32931    -0.31087    -0.26653    -0.08136    -0.03691
    -0.01912    -0.01394     0.00118     0.01073     0.01331     0.02010
     0.02227     0.02319
 
  Peak memory usage:   1029 Mb
  
  end of program scf
   
 Time(scf)  user:     2835.6  user+sys:     2835.6  wallclock:     9121.9
  
  start of program sole
  
    SCRF                   solvation energy
  iteration          Hartrees            kcal/mol
     0               0.0000000            0.0000
     1              -0.0178690          -11.2130
     2              -0.0190445          -11.9506
  
  solvation energy not yet converged... 
  
  Peak memory usage:    813 Mb
  
  end of program sole
   
 Time(sole)  user:        0.2  user+sys:        0.2  wallclock:        0.8
  
  start of program ch
  
  gridpoints used for charge fit        16770
    out of a possible maximum of        16770
  
   Electrostatic potential fitting constrained to reproduce
     total charge:                yes
     dipole moment:               no 
     traceless quadrupole moment: no 
     traceless octapole moment:   no 
  
  Atomic charges from electrostatic potential: 
   
 Atom       C1           C2           C3           C4           C5      
 Charge   -0.11624     -0.04759     -0.19302      0.22435      0.18029
   
 Atom       C6           C7           C8           C9           C10     
 Charge   -0.25276     -0.39037     -0.09176     -0.10849     -0.27483
   
 Atom       C11          O12          Si13         C14          C15     
 Charge    0.15153     -0.12368     -0.12147      0.10111      0.20900
   
 Atom       C16          C17          C18          C19          C20     
 Charge    0.29355     -0.14984     -0.51266     -0.27676      0.12741
   
 Atom       Si21         O22          C23          C24          P25     
 Charge   -0.02778     -0.23876     -0.17871     -0.10330      0.70780
   
 Atom       O26          N27          C28          C29          C30     
 Charge   -0.40755     -0.54358      0.19597      0.01245      0.21956
   
 Atom       C31          C32          C33          C34          C35     
 Charge   -0.02015     -0.07529      0.05316     -0.21068     -0.23169
   
 Atom       C36          C37          C38          C39          C40     
 Charge   -0.10983     -0.10958     -0.22100     -0.24971     -0.09258
   
 Atom       C41          C42          C43          C44          C45     
 Charge    0.01365      0.00708     -0.04739     -0.13718     -0.12277
   
 Atom       C46          C47          C48          C49          C50     
 Charge   -0.11357     -0.18143     -0.09715     -0.17278     -0.14334
   
 Atom       C51          C52          C53          C54          C55     
 Charge   -0.12200     -0.10022     -0.19252     -0.05568     -0.13241
   
 Atom       C56          C57          C58          C59          C60     
 Charge   -0.12700     -0.20873     -0.23652     -0.07951     -0.20053
   
 Atom       C61          C62          C63          C64          C65     
 Charge   -0.16171     -0.15892     -0.08529     -0.14207     -0.16180
   
 Atom       C66          C67          C68          C69          C70     
 Charge    0.20712     -0.26954     -0.00821     -0.08955      0.01741
   
 Atom       N71          S72          O73          O74          C75     
 Charge   -0.26847      0.70541     -0.42502     -0.40787      0.61347
   
 Atom       C76          C77          C78          C79          N80     
 Charge   -0.50755      0.26086     -0.49864      0.47889     -0.68805
   
 Atom       N81          C82          C83          C84          C85     
 Charge    0.14667     -0.13964     -0.30828     -0.19003     -0.20334
   
 Atom       H86          H87          H88          H89          H90     
 Charge    0.12807      0.15411      0.15394      0.19204      0.13668
   
 Atom       H91          H92          H93          H94          H95     
 Charge    0.12692      0.23341      0.16254      0.15375      0.13628
   
 Atom       H96          H97          H98          H99          H100    
 Charge    0.13169      0.12017      0.12783      0.07899      0.13664
   
 Atom       H101         H102         H103         H104         H105    
 Charge    0.15371      0.12110      0.08210      0.06336      0.11565
   
 Atom       H106         H107         H108         H109         H110    
 Charge    0.11045      0.11935      0.13466      0.14438      0.13344
   
 Atom       H111         H112         H113         H114         H115    
 Charge    0.12838      0.13781      0.12550      0.12906      0.13592
   
 Atom       H116         H117         H118         H119         H120    
 Charge    0.11123      0.12006      0.12428      0.13925      0.15676
   
 Atom       H121         H122         H123         H124         H125    
 Charge    0.13053      0.14357      0.14183      0.13750      0.08612
   
 Atom       H126         H127         H128         H129         H130    
 Charge    0.15723      0.15075      0.22032      0.07442      0.14524
   
 Atom       H131         H132         H133         H134         H135    
 Charge    0.18778      0.20727      0.10907      0.21767      0.06180
   
 Atom       H136         H137         H138         H139         H140    
 Charge    0.10597      0.15415      0.17086      0.14276      0.20735
   
 Atom       S141         O142         C143         O144         F145    
 Charge    0.78779     -0.43405      0.32995     -0.54534     -0.12232
   
 Atom       F146         F147         H148    
 Charge   -0.11132     -0.09797      0.31919
  
  sum of atomic charges:    -0.000000
   
 RMS Error   1.05E-03 hartrees
 
  Peak memory usage:    816 Mb
  
  end of program ch
   
 Time(ch)  user:       18.9  user+sys:       18.9  wallclock:       64.0
  
  start of program post
  
  Writing input files for PBF
  Peak memory usage:    759 Mb
  
  end of program post
   
 Time(post)  user:        0.8  user+sys:        0.8  wallclock:        3.6

  start of program pbf

Pbf Version 4.10

Molecular surface area:      853.20852   [A2]
Reaction field energy:       -19.85049   [kT]
  Peak memory usage: 723 Mb

  end of program pbf

 Time(pbf)  user:       13.7  user+sys:       13.8  wallclock:       38.7
  
  start of program solv
  
   number of surface charges from PBF   13562
   sum of surface charges     -0.00029
   
  nuclear repulsion energy.......   20743.198668174 hartrees
  Peak memory usage:    894 Mb
  
  end of program solv
   
 Time(solv)  user:       37.8  user+sys:       37.8  wallclock:      117.3
  
  start of program scf
  
 Energy computed with NOPS off.
  
       i  u  d  i  g                   
       t  p  i  c  r                                 RMS    maximum
       e  d  i  u  i                       energy  density   DIIS  
       r  t  s  t  d       total energy    change  change    error 
  
etot    1  N  N  1  U   -5575.60358481454           3.6E-06  1.4E-04
etot    2  N  N  1  U   -5575.60358009273 -4.7E-06  0.0E+00  0.0E+00
  
  
 Energy components, in hartrees:
   (A)  Total zero-electron terms....   20746.11226938622
   (B)    Nuclear-nuclear............   20743.19866817437
   (C)    Nuclear-solvent............       2.91360121185
   (E)  Total one-electron terms.....  -49019.53222531463
   (F)    Electron-nuclear...........  -54552.60992936836
   (G)    Electron-solvent...........      -2.95460151415
   (H)    Kinetic....................    5536.03230556788
   (I)  Total two-electron terms.....   22697.81637583568
   (J)    Coulomb....................   23349.05611742829
   (K)    Exchange+Correlation.......    -651.23974159261
   (L)  Electronic energy............  -26321.71584947895  (E+I)
   (N)  Total quantum mech. energy...   -5575.60358009273  (A+L)
   (O)  Gas phase energy.............   -5575.56386642933
   (P)  Solution phase energy........   -5575.58307994158  (Q+R+S)
   (Q)    Total solute energy........   -5575.56257979042  (N-C-G)
   (R)    Total solvent energy.......      -0.02050015115  (C/2+G/2)
   (S)    Solute cavity energy.......       0.00000000000
   (U)  Reorganization energy........       0.00128663890  (Q-O)
   (V)  Solvation energy.............      -0.01921351225  (P-O)
  
 SCFE:  Solution phase energy: DFT(m06-2x)      -5575.58307994158 hartrees
        SCF iterations:   2
  
 
 HOMO energy:    -0.24444
 LUMO energy:    -0.08096
 
  Orbital energies (hartrees): 
   -90.19659   -90.15917   -78.20509   -67.00719   -67.00106   -25.29900
   -25.29742   -25.29345   -19.68517   -19.68291   -19.68140   -19.68101
   -19.64230   -19.62853   -19.59560   -14.85969   -14.80440   -14.77574
   -14.74330   -10.81208   -10.68219   -10.65004   -10.62135   -10.62114
   -10.61897   -10.60233   -10.60156   -10.59693   -10.59314   -10.58894
   -10.58448   -10.58308   -10.57404   -10.57232   -10.57034   -10.57002
   -10.56815   -10.56717   -10.56164   -10.56068   -10.55785   -10.55668
   -10.55465   -10.55237   -10.55229   -10.55229   -10.55167   -10.55149
   -10.55105   -10.55048   -10.55041   -10.55036   -10.55009   -10.55004
   -10.54986   -10.54933   -10.54920   -10.54875   -10.54866   -10.54797
   -10.54717   -10.54706   -10.54625   -10.54613   -10.54407   -10.54348
   -10.54238   -10.54142   -10.54063   -10.53941   -10.53907   -10.53856
   -10.53854   -10.53834   -10.53795   -10.53709   -10.53664   -10.53617
   -10.53493   -10.53483   -10.53395   -10.53379   -10.53272   -10.53072
   -10.52884   -10.52826   -10.52738   -10.52482   -10.52117   -10.52081
   -10.51857   -10.51796    -8.50780    -8.46788    -6.98463    -6.43024
    -6.42883    -6.42781    -6.38984    -6.38945    -6.38906    -5.53827
    -5.53219    -5.10307    -5.10197    -5.10056    -3.84798    -3.84779
    -3.84761    -3.84206    -3.84166    -3.84138    -1.46284    -1.37291
    -1.37018    -1.27317    -1.22874    -1.21996    -1.18082    -1.16228
    -1.11067    -1.10232    -1.09724    -1.08264    -1.05911    -0.99635
    -0.98786    -0.98074    -0.96638    -0.94525    -0.94172    -0.93966
    -0.93814    -0.93253    -0.93101    -0.92524    -0.92040    -0.91617
    -0.90972    -0.89393    -0.88911    -0.86808    -0.85236    -0.84628
    -0.84345    -0.83934    -0.83672    -0.83592    -0.83477    -0.83118
    -0.82899    -0.82773    -0.82690    -0.82542    -0.82442    -0.82270
    -0.82194    -0.82029    -0.81877    -0.81604    -0.81292    -0.79970
    -0.79225    -0.77550    -0.76231    -0.75154    -0.73463    -0.72836
    -0.71127    -0.70913    -0.70545    -0.70194    -0.69464    -0.69076
    -0.68784    -0.68663    -0.68051    -0.67845    -0.67495    -0.67298
    -0.67083    -0.66955    -0.66650    -0.66487    -0.66273    -0.66014
    -0.65677    -0.65563    -0.65438    -0.64774    -0.64708    -0.64515
    -0.63742    -0.63296    -0.62882    -0.62562    -0.62309    -0.60655
    -0.60183    -0.59858    -0.59673    -0.59635    -0.58893    -0.58547
    -0.58425    -0.58008    -0.57945    -0.57647    -0.57253    -0.57074
    -0.56865    -0.56649    -0.56399    -0.56222    -0.55955    -0.55742
    -0.54928    -0.54733    -0.54411    -0.54209    -0.53728    -0.53515
    -0.53137    -0.52747    -0.52712    -0.52473    -0.52237    -0.51732
    -0.51543    -0.51362    -0.51206    -0.51124    -0.51033    -0.50909
    -0.50724    -0.50624    -0.50444    -0.50386    -0.50218    -0.50046
    -0.50044    -0.49907    -0.49739    -0.49549    -0.49459    -0.49149
    -0.49076    -0.48992    -0.48903    -0.48752    -0.48289    -0.48220
    -0.48184    -0.48073    -0.47754    -0.47523    -0.47258    -0.47184
    -0.47133    -0.46728    -0.46470    -0.46179    -0.46076    -0.45813
    -0.45368    -0.45186    -0.45063    -0.44796    -0.44664    -0.44415
    -0.44324    -0.43780    -0.43731    -0.43523    -0.43333    -0.42952
    -0.42797    -0.42658    -0.42468    -0.42377    -0.42271    -0.42123
    -0.41947    -0.41805    -0.41643    -0.41519    -0.41110    -0.41066
    -0.40749    -0.40458    -0.40317    -0.39918    -0.39646    -0.39273
    -0.39076    -0.39049    -0.38799    -0.38590    -0.38350    -0.38173
    -0.38119    -0.37908    -0.37715    -0.37603    -0.37331    -0.37165
    -0.36502    -0.36291    -0.36270    -0.35464    -0.35325    -0.34894
    -0.34215    -0.34051    -0.33965    -0.33517    -0.33297    -0.33192
    -0.33165    -0.32924    -0.32814    -0.32233    -0.30215    -0.30143
    -0.29947    -0.29818    -0.29739    -0.29471    -0.28883    -0.28762
    -0.28724    -0.28526    -0.28462    -0.28371    -0.28150    -0.28078
    -0.27634    -0.27188    -0.25423    -0.24444    -0.08096    -0.03668
    -0.01955    -0.01385     0.00081     0.01088     0.01288     0.01973
     0.02199     0.02290
 
  Peak memory usage:   1029 Mb
  
  end of program scf
   
 Time(scf)  user:     2815.7  user+sys:     2815.7  wallclock:     7951.8
  
  start of program sole
  
    SCRF                   solvation energy
  iteration          Hartrees            kcal/mol
     0               0.0000000            0.0000
     1              -0.0178690          -11.2130
     2              -0.0190445          -11.9506
     3              -0.0192135          -12.0567
  
  solvation energy not yet converged... 
  
  Peak memory usage:    813 Mb
  
  end of program sole
   
 Time(sole)  user:        0.1  user+sys:        0.1  wallclock:        0.6
  
  start of program ch
  
  gridpoints used for charge fit        16770
    out of a possible maximum of        16770
  
   Electrostatic potential fitting constrained to reproduce
     total charge:                yes
     dipole moment:               no 
     traceless quadrupole moment: no 
     traceless octapole moment:   no 
  
  Atomic charges from electrostatic potential: 
   
 Atom       C1           C2           C3           C4           C5      
 Charge   -0.11492     -0.04650     -0.19391      0.22426      0.17980
   
 Atom       C6           C7           C8           C9           C10     
 Charge   -0.25295     -0.39069     -0.09207     -0.10664     -0.27164
   
 Atom       C11          O12          Si13         C14          C15     
 Charge    0.15118     -0.12466     -0.12279      0.10059      0.20916
   
 Atom       C16          C17          C18          C19          C20     
 Charge    0.29439     -0.14833     -0.51488     -0.27732      0.12783
   
 Atom       Si21         O22          C23          C24          P25     
 Charge   -0.02868     -0.23846     -0.18017     -0.10360      0.70772
   
 Atom       O26          N27          C28          C29          C30     
 Charge   -0.40799     -0.54301      0.19607      0.01126      0.21815
   
 Atom       C31          C32          C33          C34          C35     
 Charge   -0.01944     -0.07441      0.05335     -0.20975     -0.23215
   
 Atom       C36          C37          C38          C39          C40     
 Charge   -0.10736     -0.11093     -0.21920     -0.25124     -0.09239
   
 Atom       C41          C42          C43          C44          C45     
 Charge    0.01393      0.00745     -0.04737     -0.13696     -0.12274
   
 Atom       C46          C47          C48          C49          C50     
 Charge   -0.11318     -0.18112     -0.09645     -0.17228     -0.14290
   
 Atom       C51          C52          C53          C54          C55     
 Charge   -0.12090     -0.10011     -0.19158     -0.05443     -0.13143
   
 Atom       C56          C57          C58          C59          C60     
 Charge   -0.12727     -0.20949     -0.23645     -0.07950     -0.20043
   
 Atom       C61          C62          C63          C64          C65     
 Charge   -0.16146     -0.15888     -0.08505     -0.14300     -0.16075
   
 Atom       C66          C67          C68          C69          C70     
 Charge    0.20592     -0.26930     -0.00788     -0.08911      0.01737
   
 Atom       N71          S72          O73          O74          C75     
 Charge   -0.26977      0.70399     -0.42515     -0.40538      0.61406
   
 Atom       C76          C77          C78          C79          N80     
 Charge   -0.50537      0.26227     -0.49918      0.47782     -0.69069
   
 Atom       N81          C82          C83          C84          C85     
 Charge    0.14657     -0.13836     -0.30845     -0.18864     -0.20365
   
 Atom       H86          H87          H88          H89          H90     
 Charge    0.12736      0.15411      0.15382      0.19159      0.13666
   
 Atom       H91          H92          H93          H94          H95     
 Charge    0.12641      0.23356      0.16260      0.15392      0.13634
   
 Atom       H96          H97          H98          H99          H100    
 Charge    0.13136      0.11999      0.12727      0.07902      0.13644
   
 Atom       H101         H102         H103         H104         H105    
 Charge    0.15393      0.12143      0.08189      0.06301      0.11552
   
 Atom       H106         H107         H108         H109         H110    
 Charge    0.11034      0.11913      0.13440      0.14410      0.13317
   
 Atom       H111         H112         H113         H114         H115    
 Charge    0.12799      0.13752      0.12526      0.12884      0.13555
   
 Atom       H116         H117         H118         H119         H120    
 Charge    0.11097      0.11959      0.12406      0.13930      0.15656
   
 Atom       H121         H122         H123         H124         H125    
 Charge    0.13036      0.14338      0.14163      0.13731      0.08590
   
 Atom       H126         H127         H128         H129         H130    
 Charge    0.15755      0.15049      0.22001      0.07418      0.14531
   
 Atom       H131         H132         H133         H134         H135    
 Charge    0.18773      0.20703      0.10883      0.21788      0.06237
   
 Atom       H136         H137         H138         H139         H140    
 Charge    0.10539      0.15367      0.17061      0.14230      0.20715
   
 Atom       S141         O142         C143         O144         F145    
 Charge    0.78988     -0.43591      0.33044     -0.54589     -0.12253
   
 Atom       F146         F147         H148    
 Charge   -0.11176     -0.09797      0.31921
  
  sum of atomic charges:    -0.000000
   
 RMS Error   1.05E-03 hartrees
 
  Peak memory usage:    816 Mb
  
  end of program ch
   
 Time(ch)  user:       19.0  user+sys:       19.0  wallclock:       46.0
  
  start of program post
  
  Writing input files for PBF
  Peak memory usage:    759 Mb
  
  end of program post
   
 Time(post)  user:        0.8  user+sys:        0.8  wallclock:        2.7

  start of program pbf

Pbf Version 4.10

Molecular surface area:      853.20852   [A2]
Reaction field energy:       -19.83196   [kT]
  Peak memory usage: 723 Mb

  end of program pbf

 Time(pbf)  user:       13.3  user+sys:       13.4  wallclock:       30.1
  
  start of program solv
  
   number of surface charges from PBF   13562
   sum of surface charges     -0.00029
   
  nuclear repulsion energy.......   20743.198668174 hartrees
  Peak memory usage:    894 Mb
  
  end of program solv
   
 Time(solv)  user:       37.6  user+sys:       37.6  wallclock:       91.1
  
  start of program scf
  
 Energy computed with NOPS off.
  
       i  u  d  i  g                   
       t  p  i  c  r                                 RMS    maximum
       e  d  i  u  i                       energy  density   DIIS  
       r  t  s  t  d       total energy    change  change    error 
  
etot    1  N  N  1  U   -5575.60355671491           5.3E-06  1.9E-04
etot    2  N  N  1  U   -5575.60353925339 -1.7E-05  0.0E+00  0.0E+00
  
  
 Energy components, in hartrees:
   (A)  Total zero-electron terms....   20746.10332639025
   (B)    Nuclear-nuclear............   20743.19866817437
   (C)    Nuclear-solvent............       2.90465821589
   (E)  Total one-electron terms.....  -49019.61775290313
   (F)    Electron-nuclear...........  -54552.72402353679
   (G)    Electron-solvent...........      -2.94564264095
   (H)    Kinetic....................    5536.05191327461
   (I)  Total two-electron terms.....   22697.91088725948
   (J)    Coulomb....................   23349.15382139851
   (K)    Exchange+Correlation.......    -651.24293413903
   (L)  Electronic energy............  -26321.70686564365  (E+I)
   (N)  Total quantum mech. energy...   -5575.60353925339  (A+L)
   (O)  Gas phase energy.............   -5575.56386642933
   (P)  Solution phase energy........   -5575.58304704086  (Q+R+S)
   (Q)    Total solute energy........   -5575.56255482833  (N-C-G)
   (R)    Total solvent energy.......      -0.02049221253  (C/2+G/2)
   (S)    Solute cavity energy.......       0.00000000000
   (U)  Reorganization energy........       0.00131160100  (Q-O)
   (V)  Solvation energy.............      -0.01918061153  (P-O)
  
 SCFE:  Solution phase energy: DFT(m06-2x)      -5575.58304704086 hartrees
        SCF iterations:   2
  
 
 HOMO energy:    -0.24450
 LUMO energy:    -0.08170
 
  Orbital energies (hartrees): 
   -90.19781   -90.15840   -78.20435   -67.00690   -67.00221   -25.29846
   -25.29734   -25.29244   -19.68405   -19.68237   -19.68205   -19.67427
   -19.64220   -19.63216   -19.59681   -14.86236   -14.80956   -14.77648
   -14.74100   -10.81111   -10.68390   -10.65107   -10.62064   -10.62020
   -10.61904   -10.60005   -10.59942   -10.59804   -10.59322   -10.58902
   -10.58507   -10.58286   -10.57400   -10.57193   -10.56847   -10.56846
   -10.56520   -10.56448   -10.56173   -10.56042   -10.55841   -10.55723
   -10.55375   -10.55263   -10.55185   -10.55170   -10.55153   -10.55117
   -10.55081   -10.55065   -10.55050   -10.55045   -10.55038   -10.55020
   -10.54977   -10.54964   -10.54945   -10.54914   -10.54835   -10.54768
   -10.54641   -10.54593   -10.54550   -10.54538   -10.54329   -10.54329
   -10.54270   -10.54071   -10.54016   -10.53924   -10.53897   -10.53811
   -10.53806   -10.53784   -10.53780   -10.53682   -10.53636   -10.53476
   -10.53464   -10.53391   -10.53340   -10.53266   -10.53131   -10.53009
   -10.52930   -10.52899   -10.52849   -10.52420   -10.52296   -10.52075
   -10.51928   -10.51805    -8.50887    -8.46720    -6.98392    -6.43133
    -6.42991    -6.42890    -6.38916    -6.38875    -6.38837    -5.53795
    -5.53329    -5.10237    -5.10125    -5.09985    -3.84766    -3.84746
    -3.84730    -3.84317    -3.84276    -3.84249    -1.46220    -1.37233
    -1.36953    -1.27293    -1.22844    -1.21948    -1.17992    -1.16139
    -1.11159    -1.10345    -1.09907    -1.08283    -1.05932    -0.99554
    -0.98817    -0.97979    -0.96586    -0.94498    -0.94153    -0.93957
    -0.93776    -0.93214    -0.93104    -0.92502    -0.91985    -0.91672
    -0.90936    -0.89441    -0.88850    -0.86824    -0.85187    -0.84622
    -0.84311    -0.83894    -0.83649    -0.83572    -0.83460    -0.83110
    -0.82848    -0.82718    -0.82659    -0.82582    -0.82431    -0.82242
    -0.82185    -0.81989    -0.81875    -0.81597    -0.81274    -0.79918
    -0.79230    -0.77596    -0.76176    -0.75185    -0.73486    -0.72811
    -0.71171    -0.70856    -0.70583    -0.70144    -0.69432    -0.69021
    -0.68731    -0.68597    -0.68027    -0.67802    -0.67501    -0.67283
    -0.67055    -0.66937    -0.66628    -0.66524    -0.66276    -0.65991
    -0.65668    -0.65534    -0.65428    -0.64750    -0.64674    -0.64516
    -0.63759    -0.63288    -0.62867    -0.62562    -0.62260    -0.60629
    -0.60187    -0.59833    -0.59657    -0.59649    -0.58875    -0.58524
    -0.58444    -0.57994    -0.57907    -0.57616    -0.57228    -0.57058
    -0.56823    -0.56627    -0.56356    -0.56237    -0.55936    -0.55708
    -0.54901    -0.54709    -0.54391    -0.54198    -0.53695    -0.53499
    -0.53119    -0.52703    -0.52690    -0.52437    -0.52234    -0.51716
    -0.51586    -0.51359    -0.51182    -0.51103    -0.51030    -0.50906
    -0.50700    -0.50643    -0.50457    -0.50369    -0.50188    -0.50043
    -0.50036    -0.49888    -0.49726    -0.49529    -0.49416    -0.49115
    -0.49041    -0.48986    -0.48878    -0.48734    -0.48269    -0.48194
    -0.48156    -0.48056    -0.47751    -0.47509    -0.47243    -0.47183
    -0.47121    -0.46726    -0.46445    -0.46179    -0.46056    -0.45816
    -0.45342    -0.45190    -0.45032    -0.44791    -0.44659    -0.44388
    -0.44311    -0.43767    -0.43733    -0.43513    -0.43303    -0.42929
    -0.42758    -0.42642    -0.42452    -0.42360    -0.42269    -0.42105
    -0.41933    -0.41786    -0.41622    -0.41494    -0.41073    -0.41034
    -0.40741    -0.40433    -0.40323    -0.39880    -0.39621    -0.39254
    -0.39064    -0.39026    -0.38781    -0.38585    -0.38352    -0.38160
    -0.38102    -0.37871    -0.37702    -0.37616    -0.37332    -0.37145
    -0.36534    -0.36393    -0.36341    -0.35421    -0.35345    -0.34856
    -0.34183    -0.34021    -0.33930    -0.33548    -0.33296    -0.33227
    -0.33161    -0.32936    -0.32778    -0.32188    -0.30191    -0.30113
    -0.29933    -0.29809    -0.29739    -0.29446    -0.28844    -0.28765
    -0.28698    -0.28490    -0.28426    -0.28374    -0.28154    -0.28072
    -0.27623    -0.27135    -0.25359    -0.24450    -0.08170    -0.03717
    -0.01897    -0.01401     0.00117     0.01076     0.01344     0.02011
     0.02215     0.02306
 
  Peak memory usage:   1029 Mb
  
  end of program scf
   
 Time(scf)  user:     2793.8  user+sys:     2793.8  wallclock:     7388.9
  
  start of program sole
  
    SCRF                   solvation energy
  iteration          Hartrees            kcal/mol
     0               0.0000000            0.0000
     1              -0.0178690          -11.2130
     2              -0.0190445          -11.9506
     3              -0.0192135          -12.0567
     4              -0.0191806          -12.0360
  
  stopping: solvation energy converged
  
  iterations:   4    sfinal:    -12.0360 kcal/mol
  
  Peak memory usage:    813 Mb
  
  end of program sole
   
 Time(sole)  user:        0.2  user+sys:        0.2  wallclock:        0.4
  
  start of program post
  
  Writing input files for PBF
  Peak memory usage:    759 Mb
  
  end of program post
   
 Time(post)  user:        0.8  user+sys:        0.8  wallclock:        3.0

 Total cpu seconds     user:   58089.040   user+sys:   58089.040
  
 Total elapsed time:    181363 seconds

Job Toru-NTf-Sulfonyl-1-chkp-unrestrained-IRC-max-disp-SPE completed on tethys at Sun Mar 26 17:08:06 2017
