Command:    jaguar run jexec.py -jobname Toru-NTf-Sulfonyl-1-chkp-unrestrained-IRC-max-disp-SPE -nsubjobs 1 Toru-NTf-Sulfonyl-1-chkp-unrestrained-IRC-max-disp-SPE.in
[running at reduced cpu priority]
Release:    2017-1
Exec:       /usr/local/shared/schrodinger/current/jaguar-v9.5/bin/Linux-x86_64
Host:       tethys
JobId:      tethys-0-58d522f1
JobDir:     /scratch/ab2144/Toru-NTf-Sulfonyl-1-chkp-unrestrained-IRC-max-disp-SPE
Date:       Fri Mar 24 13:45:23 2017

Contents of /scratch/ab2144/Toru-NTf-Sulfonyl-1-chkp-unrestrained-IRC-max-disp-SPE:
/scratch/ab2144/Toru-NTf-Sulfonyl-1-chkp-unrestrained-IRC-max-disp-SPE/tethys-0-58d522f1
/scratch/ab2144/Toru-NTf-Sulfonyl-1-chkp-unrestrained-IRC-max-disp-SPE/tethys-0-58d522f1.nodes
/scratch/ab2144/Toru-NTf-Sulfonyl-1-chkp-unrestrained-IRC-max-disp-SPE/tethys-0-58d522f1.recover
/scratch/ab2144/Toru-NTf-Sulfonyl-1-chkp-unrestrained-IRC-max-disp-SPE/Toru-NTf-Sulfonyl-1-chkp-unrestrained-IRC-max-disp-SPE.recover
/scratch/ab2144/Toru-NTf-Sulfonyl-1-chkp-unrestrained-IRC-max-disp-SPE/Toru-NTf-Sulfonyl-1-chkp-unrestrained-IRC-max-disp-SPE.mae
/scratch/ab2144/Toru-NTf-Sulfonyl-1-chkp-unrestrained-IRC-max-disp-SPE/Toru-NTf-Sulfonyl-1-chkp-unrestrained-IRC-max-disp-SPE.log
/scratch/ab2144/Toru-NTf-Sulfonyl-1-chkp-unrestrained-IRC-max-disp-SPE/Toru-NTf-Sulfonyl-1-chkp-unrestrained-IRC-max-disp-SPE.in

Executing subprocess:
/usr/local/shared/schrodinger/current/jaguar-v9.5/bin/Linux-x86_64/jexec Toru-NTf-Sulfonyl-1-chkp-unrestrained-IRC-max-disp-SPE.in -cwd -out /scratch/ab2144/Toru-NTf-Sulfonyl-1-chkp-unrestrained-IRC-max-disp-SPE

[running at reduced cpu priority]
[running at reduced cpu priority]
Job Toru-NTf-Sulfonyl-1-chkp-unrestrained-IRC-max-disp-SPE started on tethys at Fri Mar 24 13:45:23 2017
jobid: tethys-0-58d522f1 
Jaguar version 9.5, release  11
Molecular Point Group: C1      
Point Group used: C1
pre (input checking) done.
onee (1-electron integrals) done.
hfig (HF initial guess) done.
probe (project orbitals) done.
grid (grid generation) done.
rwr (Q operators) done.
scf type: DFT=M06-2X
  
       i  u  d  i  g
       t  p  i  c  r                                 RMS    maximum
       e  d  i  u  i                       energy  density   DIIS  
       r  t  s  t  d       total energy    change  change    error 
  
etot    1  N  N  1  U   -5562.73717785910           4.1E-03  1.4E-01
etot    2  N  Y  1  U   -5529.58385054209 -3.3E+01  1.7E-02  1.3E-01
etot    3  N  Y  1  U   -5276.71706592270 -2.5E+02  1.7E-02  3.8E-01
etot    4  N  Y  1  U   -5566.76886604872  2.9E+02  2.7E-03  8.1E-02
etot    5  N  Y  1  U   -5571.52377951083  4.8E+00  2.1E-03  4.2E-02
etot    6  N  Y  1  U   -5565.49149509322 -6.0E+00  1.5E-03  1.1E-01
etot    7  N  Y  1  U   -5575.41571420080  9.9E+00  3.4E-04  2.3E-02
etot    8  N  Y  1  U   -5575.53210517141  1.2E-01  1.3E-04  1.6E-02
etot    9  N  Y  1  U   -5575.55914935251  2.7E-02  4.8E-05  3.0E-03
etot   10  N  Y  1  U   -5575.56293906034  3.8E-03  1.7E-05  1.4E-03
etot   11  N  Y  1  U   -5575.56350780429  5.7E-04  9.7E-06  8.7E-04
etot   12  N  Y  1  U   -5575.56371826282  2.1E-04  7.8E-06  3.0E-04
etot   13  N  Y  1  U   -5575.56383653376  1.2E-04  4.7E-06  2.7E-04
etot   14  N  N  1  U   -5575.56386642933  3.0E-05  0.0E+00  0.0E+00
scf (DFT) done.
--------gas phase calculation complete----------------------
ch (properties) done.
post (output conversion) done.
pbf (Poisson-Boltzmann solver) done.
solv (solvation checking) done.
  
       i  u  d  i  g
       t  p  i  c  r                                 RMS    maximum
       e  d  i  u  i                       energy  density   DIIS  
       r  t  s  t  d       total energy    change  change    error 
  
etot    1  N  N  1  U   -5575.59957623643           5.1E-05  1.5E-03
etot    2  N  Y  1  U   -5575.60037140069  8.0E-04  1.5E-05  1.2E-03
etot    3  N  Y  1  U   -5575.60058847138  2.2E-04  4.8E-06  7.0E-04
etot    4  N  N  1  U   -5575.60063009229  4.2E-05  0.0E+00  0.0E+00
scf (DFT) done.
sole (solvation energy) done.
----------solvation iteration  1 complete------------------
ch (properties) done.
post (output conversion) done.
pbf (Poisson-Boltzmann solver) done.
solv (solvation checking) done.
  
       i  u  d  i  g
       t  p  i  c  r                                 RMS    maximum
       e  d  i  u  i                       energy  density   DIIS  
       r  t  s  t  d       total energy    change  change    error 
  
etot    1  N  N  1  U   -5575.60324347145           6.0E-06  1.5E-04
etot    2  N  N  1  U   -5575.60325382685  1.0E-05  0.0E+00  0.0E+00
scf (DFT) done.
sole (solvation energy) done.
----------solvation iteration  2 complete------------------
ch (properties) done.
post (output conversion) done.
pbf (Poisson-Boltzmann solver) done.
solv (solvation checking) done.
  
       i  u  d  i  g
       t  p  i  c  r                                 RMS    maximum
       e  d  i  u  i                       energy  density   DIIS  
       r  t  s  t  d       total energy    change  change    error 
  
etot    1  N  N  1  U   -5575.60358481454           3.6E-06  1.4E-04
etot    2  N  N  1  U   -5575.60358009273 -4.7E-06  0.0E+00  0.0E+00
scf (DFT) done.
sole (solvation energy) done.
----------solvation iteration  3 complete------------------
ch (properties) done.
post (output conversion) done.
pbf (Poisson-Boltzmann solver) done.
solv (solvation checking) done.
  
       i  u  d  i  g
       t  p  i  c  r                                 RMS    maximum
       e  d  i  u  i                       energy  density   DIIS  
       r  t  s  t  d       total energy    change  change    error 
  
etot    1  N  N  1  U   -5575.60355671491           5.3E-06  1.9E-04
etot    2  N  N  1  U   -5575.60353925339 -1.7E-05  0.0E+00  0.0E+00
scf (DFT) done.
sole (solvation energy) done.
----final solvation iteration  4 complete------------------
post (output conversion) done.
Job Toru-NTf-Sulfonyl-1-chkp-unrestrained-IRC-max-disp-SPE completed on tethys at Sun Mar 26 17:08:06 2017
Timer (jaguar_backend.py) : 181363.64 secs (2 days, 2 hrs, 22 mins, 43 secs)
Finished:   Sun Mar 26 17:08:07 2017
