Job Type-II-Z-sulfonyl-bind-5-chkp-unrestrained-2-SPE started on tethys at Fri Mar  3 14:05:23 2017
jobid: tethys-0-58b9781f

  +--------------------------------------------------------------------+
  |  Jaguar version 9.5, release  11                                   |
  |                                                                    |
  |  Copyright Schrodinger, Inc.                                       |
  |  All Rights Reserved.                                              |
  |                                                                    |
  |  The following have contributed to Jaguar (listed alphabetically): |
  |  Mike Beachy, Art Bochevarov, Dale Braden, Yixiang Cao,            |
  |  Chris Cortis, Rich Friesner, Bill Goddard, Hod Greeley,           |
  |  Tom Hughes, Leif Jacobson, Jean-Marc Langlois,                    |
  |  Daniel Mainz, Rob Murphy, Dean Philipp, Tom Pollard,              |
  |  Murco Ringnalda, Mark Watson, Haoyu Yu.                           |
  |                                                                    |
  |  Use of this program should be acknowledged in publications as:    |
  |                                                                    |
  |  Jaguar, version 9.5, Schrodinger, Inc., New York, NY, 2017.       |
  |                                                                    |
  |  A. D. Bochevarov, E. Harder, T. F. Hughes, J. R. Greenwood,       |
  |  D. A. Braden, D. M. Philipp, D. Rinaldo, M. D. Halls,             |
  |  J. Zhang, R. A. Friesner, "Jaguar: A High-Performance Quantum     |
  |  Chemistry Software Program with Strengths in Life and Materials   |
  |  Sciences", Int. J. Quantum Chem., 2013, 113(18), 2110-2142.       |
  +--------------------------------------------------------------------+
  
  start of program pre
  
  Job name: Type-II-Z-sulfonyl-bind-5-chkp-unrestrained-2-SPE
  Executables used: /usr/local/shared/schrodinger/current/jaguar-v9.5/bin/Linux-x86_64
  Temporary files : /scratch/ab2144/Type-II-Z-sulfonyl-bind-5-chkp-unrestrained-2-SPE
  Maestro file (input):  Type-II-Z-sulfonyl-bind-5-chkp-unrestrained-2-SPE.mae
  Maestro file (output): Type-II-Z-sulfonyl-bind-5-chkp-unrestrained-2-SPE.01.mae
  
  basis set:             6-31g**                         
  net molecular charge:    0
  multiplicity:            1
  
  keygrid settings 
    wispc.....   7.500E-01
    ldens.....   0
    denspc....   7.500E-01
  
   grid     daf set  nls  grid set  Q type
  ------    -------  ---  --------  ------
  coarse       1      1       1        1
  medium       2      2       2        1
  fine         3      2       3        0
  ultrafine    4      2       4        1
  charge       0      1      -1        1
  gradient     5      2       4        1
  density      0      1       0        0
  DFT-fine     0      1     -13        0
  DFT-med.     0      1     -13        0
  DFT-grad     0      1     -13        0
  DFT-der2     0      1       0        0
  DFT-cphf     0      1       0        0
  LMP2-enrg    4      2       4        1
  LMP2-grad    5      2       2        1
  DFT-cphf2    0      1       0        0
  PBF-dens     0      1       0        0
  plotting     0      1       0        0
  Rel-grad     0      1     -17        0
  
  idftgrdm  100
  ndftgrdm   50    0    0
  idftgrdf  111
  ndftgrdf   85    0    0
  idftgrdg  111
  ndftgrdg   80    3    0
  idftgrdu  433
  ndftgrdu  105    0    0
  idftgrdd  433
  ndftgrdd  105    0    0
  idftgrdc  433
  ndftgrdc   26    0    0
  idftgrdp  433
  ndftgrdp   18    0    0
  
  number of basis functions....         1680
  
 Input geometry:
                                   angstroms
  atom               x                 y                 z
  C1            1.1171000000      3.0552000000     -0.7237000000 
  C2           -0.9050000000      4.9796000000     -0.2782000000 
  C3           -1.2591000000      3.5442000000     -0.3311000000 
  C4           -0.2849000000      2.6168000000     -0.4529000000 
  H5           -1.6793000000      5.7201000000     -0.1216000000 
  C6            4.5458000000      0.6471000000     -1.4675000000 
  C7            3.7906000000      0.3968000000     -0.3850000000 
  C8            2.4626000000      1.0672000000     -0.2530000000 
  C9            2.1327000000      2.0476000000     -1.1171000000 
  H10           5.5646000000      0.2859000000     -1.5273000000 
  C11           1.4390000000      4.3677000000     -0.6099000000 
  C12           0.3688000000      5.3692000000     -0.3850000000 
  C13           0.7343000000      6.7979000000     -0.3085000000 
  C14           2.0132000000      7.1737000000     -0.4112000000 
  C15           3.0943000000      6.1826000000     -0.5927000000 
  C16           2.8363000000      4.8727000000     -0.6832000000 
  H17          -0.0315000000      7.5516000000     -0.1683000000 
  H18           2.2673000000      8.2242000000     -0.3512000000 
  H19           4.1190000000      6.5282000000     -0.6417000000 
  H20           3.6719000000      4.1923000000     -0.7804000000 
  C21           4.0389000000      1.4992000000     -2.5591000000 
  C22           2.8876000000      2.1833000000     -2.3949000000 
  C23           2.3857000000      3.0393000000     -3.5020000000 
  C24           3.0867000000      3.1535000000     -4.6361000000 
  C25           4.3604000000      2.4248000000     -4.7974000000 
  C26           4.8131000000      1.6389000000     -3.8138000000 
  H27           1.4473000000      3.5700000000     -3.4045000000 
  H28           2.7192000000      3.7772000000     -5.4408000000 
  H29           4.9249000000      2.5256000000     -5.7154000000 
  H30           5.7464000000      1.1044000000     -3.9397000000 
  Si31         -3.0578000000      3.0945000000     -0.1058000000 
  Si32          4.6120000000     -0.3788000000      1.0996000000 
  C33          -5.5238000000      6.7327000000     -1.7354000000 
  C34          -5.4230000000      6.5410000000     -0.4152000000 
  C35          -4.6528000000      5.3948000000      0.1107000000 
  C36          -4.0645000000      4.5292000000     -0.7335000000 
  C37          -4.1660000000      4.7583000000     -2.1952000000 
  C38          -4.8605000000      5.8003000000     -2.6685000000 
  H39          -6.0855000000      7.5732000000     -2.1218000000 
  H40          -5.9016000000      7.2274000000      0.2712000000 
  H41          -4.5563000000      5.2875000000      1.1818000000 
  H42          -3.6759000000      4.0890000000     -2.8892000000 
  H43          -4.9333000000      5.9650000000     -3.7357000000 
  C44          -4.2477000000     -0.5716000000     -2.7754000000 
  C45          -4.8612000000     -0.3786000000     -1.6024000000 
  C46          -4.4753000000      0.7590000000     -0.7414000000 
  C47          -3.5148000000      1.6112000000     -1.1360000000 
  C48          -2.8495000000      1.3987000000     -2.4457000000 
  C49          -3.1913000000      0.3596000000     -3.2164000000 
  H50          -4.5239000000     -1.4088000000     -3.4027000000 
  H51          -5.6357000000     -1.0608000000     -1.2768000000 
  H52          -4.9888000000      0.8900000000      0.1991000000 
  H53          -2.0794000000      2.0803000000     -2.7840000000 
  H54          -2.6977000000      0.2023000000     -4.1666000000 
  C55          -3.9258000000      2.5513000000      4.4679000000 
  C56          -2.6623000000      2.5677000000      4.0290000000 
  C57          -2.3812000000      2.7205000000      2.5868000000 
  C58          -3.3917000000      2.8115000000      1.7050000000 
  C59          -4.7906000000      2.7651000000      2.1968000000 
  C60          -5.0418000000      2.6630000000      3.5072000000 
  H61          -4.1333000000      2.4471000000      5.5249000000 
  H62          -1.8424000000      2.4816000000      4.7303000000 
  H63          -1.3501000000      2.7714000000      2.2660000000 
  H64          -5.6163000000      2.8456000000      1.5012000000 
  H65          -6.0632000000      2.6446000000      3.8647000000 
  C66           7.3016000000     -4.1181000000      0.1932000000 
  C67           7.2221000000     -3.6213000000      1.4323000000 
  C68           6.3761000000     -2.4409000000      1.7033000000 
  C69           5.6987000000     -1.8445000000      0.7064000000 
  C70           5.7747000000     -2.4166000000     -0.6613000000 
  C71           6.5373000000     -3.4904000000     -0.9024000000 
  H72           7.9196000000     -4.9837000000     -0.0074000000 
  H73           7.7759000000     -4.0829000000      2.2395000000 
  H74           6.3151000000     -2.0645000000      2.7172000000 
  H75           5.2079000000     -1.9905000000     -1.4736000000 
  H76           6.5882000000     -3.9073000000     -1.9001000000 
  C77           1.6156000000     -2.2116000000      4.1873000000 
  C78           2.2726000000     -1.0887000000      4.4991000000 
  C79           3.2076000000     -0.4834000000      3.5280000000 
  C80           3.3751000000     -1.0395000000      2.3162000000 
  C81           2.6286000000     -2.2714000000      1.9698000000 
  C82           1.8077000000     -2.8351000000      2.8626000000 
  H83           0.9408000000     -2.6632000000      4.9026000000 
  H84           2.1332000000     -0.6300000000      5.4694000000 
  H85           3.7618000000      0.3951000000      3.8244000000 
  H86           2.7669000000     -2.7373000000      1.0038000000 
  H87           1.2801000000     -3.7468000000      2.6147000000 
  C88           7.0524000000      3.2282000000      2.8300000000 
  C89           7.6912000000      2.1003000000      2.4977000000 
  C90           6.9347000000      0.9490000000      1.9616000000 
  C91           5.5996000000      1.0222000000      1.8252000000 
  C92           4.8999000000      2.2809000000      2.1840000000 
  C93           5.5889000000      3.3244000000      2.6607000000 
  H94           7.6064000000      4.0728000000      3.2190000000 
  H95           8.7649000000      2.0300000000      2.6151000000 
  H96           7.4818000000      0.0643000000      1.6700000000 
  H97           3.8276000000      2.3638000000      2.0597000000 
  H98           5.0757000000      4.2413000000      2.9203000000 
  O99          -0.6123000000      1.2838000000     -0.4507000000 
  O100          1.6906000000      0.8515000000      0.8618000000 
  P101          0.1822000000      0.2790000000      0.5665000000 
  O102         -0.4824000000      0.1483000000      1.9031000000 
  N103         -3.0204000000     -2.9256000000     -0.7180000000 
  H104         -2.2785000000     -2.5682000000     -1.3557000000 
  C105         -3.0551000000     -2.3044000000      0.5009000000 
  C106         -6.3459000000     -1.5350000000      3.1221000000 
  C107         -5.1615000000     -0.8079000000      3.2049000000 
  C108         -4.1090000000     -1.0768000000      2.3317000000 
  C109         -4.2145000000     -2.1145000000      1.3808000000 
  C110         -5.4174000000     -2.8444000000      1.3103000000 
  C111         -6.4720000000     -2.5439000000      2.1631000000 
  H112         -7.1688000000     -1.3150000000      3.7956000000 
  H113         -5.0554000000     -0.0323000000      3.9537000000 
  H114         -3.2125000000     -0.4661000000      2.3621000000 
  H115         -5.5305000000     -3.6491000000      0.5994000000 
  H116         -7.3972000000     -3.1061000000      2.0822000000 
  H117         -2.3970000000     -1.4411000000      0.4637000000 
  N118          0.1991000000     -1.1317000000     -0.2461000000 
  S119          0.2685000000     -1.3734000000     -1.8078000000 
  O120          0.8499000000     -0.3118000000     -2.6385000000 
  O121         -0.9780000000     -2.0109000000     -2.3178000000 
  C122          1.4901000000     -2.7765000000     -1.8852000000 
  F123          2.7206000000     -2.3321000000     -1.6238000000 
  F124          1.1803000000     -3.7345000000     -0.9954000000 
  F125          1.4787000000     -3.3187000000     -3.1096000000 
  C126         -1.5279000000     -3.2471000000      1.7155000000 
  C127         -2.1822000000     -4.3573000000      2.3180000000 
  C128         -2.4602000000     -4.0167000000      3.6356000000 
  C129         -1.9229000000     -2.7317000000      3.8481000000 
  N130         -1.3235000000     -2.3113000000      2.7253000000 
  H131         -0.8446000000     -3.2528000000      0.8784000000 
  H132         -2.4487000000     -5.2630000000      1.7940000000 
  H133         -2.9983000000     -4.6007000000      4.3681000000 
  H134         -1.9479000000     -2.1129000000      4.7343000000 
  H135         -0.8984000000     -1.3792000000      2.5467000000 
  S136         -3.6657000000     -4.4125000000     -1.2720000000 
  O137         -4.1428000000     -5.1754000000     -0.1190000000 
  O138         -4.5470000000     -4.1244000000     -2.4014000000 
  C139          0.0391000000     -6.4461000000     -2.8361000000 
  C140         -0.2565000000     -6.3249000000     -1.4757000000 
  N141         -1.3510000000     -5.7055000000     -1.0230000000 
  C142         -2.1711000000     -5.2014000000     -1.9358000000 
  C143         -1.9892000000     -5.2506000000     -3.3140000000 
  C144         -0.8380000000     -5.8963000000     -3.7679000000 
  H145          0.9438000000     -6.9549000000     -3.1509000000 
  H146          0.4116000000     -6.7320000000     -0.7215000000 
  H147         -2.7131000000     -4.8042000000     -3.9841000000 
  H148         -0.6332000000     -5.9649000000     -4.8314000000 
   
  principal moments of inertia:
        amu*angstrom^2:    21343.11660    24673.77697    33093.91972
                g*cm^2: 3.54410745E-36 4.09717655E-36 5.49537397E-36
   
  rotational constants:
               cm^(-1):      0.00078984      0.00068322      0.00050939
                   GHz:      0.02367878      0.02048243      0.01527105
   
  Molecular weight:    1308.28 amu
   
  Stoichiometry: Si2C73PN4H56S2O7F3
[running at reduced cpu priority]
  Molecular Point Group: C1      
  Point Group used: C1
  
  nuclear repulsion energy.......   20759.179842690 hartrees
 
 Non-default options chosen:
   SCF calculation type: DFT(m06-2x)                 
   DFT=M06-2X
   Solvation energy will be computed using PBF
     -solute cavity energy will not be included
     -surface area terms will not be included
   Highest accuracy cutoffs used in SCF
   Solvent: other                                                           
   Internal dielectric constant:    1.000
   Continuum dielectric constant:   2.380
   Solvent probe molecule radius:   2.760
  
 Temporary integer options set:
     73=  2
  
  atom       vdw   vdw2    cov     mass  grid  daf  charge   basis
  C1        1.949  1.900  0.770   12.000    Y    Y      Y    6-31g**
  C2        1.949  1.900  0.770   12.000    Y    Y      Y    6-31g**
  C3        1.949  1.900  0.770   12.000    Y    Y      Y    6-31g**
  C4        1.949  1.900  0.770   12.000    Y    Y      Y    6-31g**
  H5        1.597  1.150  0.320    1.008    Y    Y      Y    6-31g**
  C6        1.949  1.900  0.770   12.000    Y    Y      Y    6-31g**
  C7        1.949  1.900  0.770   12.000    Y    Y      Y    6-31g**
  C8        1.949  1.900  0.770   12.000    Y    Y      Y    6-31g**
  C9        1.949  1.900  0.770   12.000    Y    Y      Y    6-31g**
  H10       1.597  1.150  0.320    1.008    Y    Y      Y    6-31g**
  C11       1.949  1.900  0.770   12.000    Y    Y      Y    6-31g**
  C12       1.949  1.900  0.770   12.000    Y    Y      Y    6-31g**
  C13       1.949  1.900  0.770   12.000    Y    Y      Y    6-31g**
  C14       1.949  1.900  0.770   12.000    Y    Y      Y    6-31g**
  C15       1.949  1.900  0.770   12.000    Y    Y      Y    6-31g**
  C16       1.949  1.900  0.770   12.000    Y    Y      Y    6-31g**
  H17       1.597  1.150  0.320    1.008    Y    Y      Y    6-31g**
  H18       1.597  1.150  0.320    1.008    Y    Y      Y    6-31g**
  H19       1.597  1.150  0.320    1.008    Y    Y      Y    6-31g**
  H20       1.597  1.150  0.320    1.008    Y    Y      Y    6-31g**
  C21       1.949  1.900  0.770   12.000    Y    Y      Y    6-31g**
  C22       1.949  1.900  0.770   12.000    Y    Y      Y    6-31g**
  C23       1.949  1.900  0.770   12.000    Y    Y      Y    6-31g**
  C24       1.949  1.900  0.770   12.000    Y    Y      Y    6-31g**
  C25       1.949  1.900  0.770   12.000    Y    Y      Y    6-31g**
  C26       1.949  1.900  0.770   12.000    Y    Y      Y    6-31g**
  H27       1.597  1.150  0.320    1.008    Y    Y      Y    6-31g**
  H28       1.597  1.150  0.320    1.008    Y    Y      Y    6-31g**
  H29       1.597  1.150  0.320    1.008    Y    Y      Y    6-31g**
  H30       1.597  1.150  0.320    1.008    Y    Y      Y    6-31g**
  Si31      2.217  2.147  1.110   27.977    Y    Y      Y    6-31g**
  Si32      2.217  2.147  1.110   27.977    Y    Y      Y    6-31g**
  C33       1.949  1.900  0.770   12.000    Y    Y      Y    6-31g**
  C34       1.949  1.900  0.770   12.000    Y    Y      Y    6-31g**
  C35       1.949  1.900  0.770   12.000    Y    Y      Y    6-31g**
  C36       1.949  1.900  0.770   12.000    Y    Y      Y    6-31g**
  C37       1.949  1.900  0.770   12.000    Y    Y      Y    6-31g**
  C38       1.949  1.900  0.770   12.000    Y    Y      Y    6-31g**
  H39       1.597  1.150  0.320    1.008    Y    Y      Y    6-31g**
  H40       1.597  1.150  0.320    1.008    Y    Y      Y    6-31g**
  H41       1.597  1.150  0.320    1.008    Y    Y      Y    6-31g**
  H42       1.597  1.150  0.320    1.008    Y    Y      Y    6-31g**
  H43       1.597  1.150  0.320    1.008    Y    Y      Y    6-31g**
  C44       1.949  1.900  0.770   12.000    Y    Y      Y    6-31g**
  C45       1.949  1.900  0.770   12.000    Y    Y      Y    6-31g**
  C46       1.949  1.900  0.770   12.000    Y    Y      Y    6-31g**
  C47       1.949  1.900  0.770   12.000    Y    Y      Y    6-31g**
  C48       1.949  1.900  0.770   12.000    Y    Y      Y    6-31g**
  C49       1.949  1.900  0.770   12.000    Y    Y      Y    6-31g**
  H50       1.597  1.150  0.320    1.008    Y    Y      Y    6-31g**
  H51       1.597  1.150  0.320    1.008    Y    Y      Y    6-31g**
  H52       1.597  1.150  0.320    1.008    Y    Y      Y    6-31g**
  H53       1.597  1.150  0.320    1.008    Y    Y      Y    6-31g**
  H54       1.597  1.150  0.320    1.008    Y    Y      Y    6-31g**
  C55       1.949  1.900  0.770   12.000    Y    Y      Y    6-31g**
  C56       1.949  1.900  0.770   12.000    Y    Y      Y    6-31g**
  C57       1.949  1.900  0.770   12.000    Y    Y      Y    6-31g**
  C58       1.949  1.900  0.770   12.000    Y    Y      Y    6-31g**
  C59       1.949  1.900  0.770   12.000    Y    Y      Y    6-31g**
  C60       1.949  1.900  0.770   12.000    Y    Y      Y    6-31g**
  H61       1.597  1.150  0.320    1.008    Y    Y      Y    6-31g**
  H62       1.597  1.150  0.320    1.008    Y    Y      Y    6-31g**
  H63       1.597  1.150  0.320    1.008    Y    Y      Y    6-31g**
  H64       1.597  1.150  0.320    1.008    Y    Y      Y    6-31g**
  H65       1.597  1.150  0.320    1.008    Y    Y      Y    6-31g**
  C66       1.949  1.900  0.770   12.000    Y    Y      Y    6-31g**
  C67       1.949  1.900  0.770   12.000    Y    Y      Y    6-31g**
  C68       1.949  1.900  0.770   12.000    Y    Y      Y    6-31g**
  C69       1.949  1.900  0.770   12.000    Y    Y      Y    6-31g**
  C70       1.949  1.900  0.770   12.000    Y    Y      Y    6-31g**
  C71       1.949  1.900  0.770   12.000    Y    Y      Y    6-31g**
  H72       1.597  1.150  0.320    1.008    Y    Y      Y    6-31g**
  H73       1.597  1.150  0.320    1.008    Y    Y      Y    6-31g**
  H74       1.597  1.150  0.320    1.008    Y    Y      Y    6-31g**
  H75       1.597  1.150  0.320    1.008    Y    Y      Y    6-31g**
  H76       1.597  1.150  0.320    1.008    Y    Y      Y    6-31g**
  C77       1.949  1.900  0.770   12.000    Y    Y      Y    6-31g**
  C78       1.949  1.900  0.770   12.000    Y    Y      Y    6-31g**
  C79       1.949  1.900  0.770   12.000    Y    Y      Y    6-31g**
  C80       1.949  1.900  0.770   12.000    Y    Y      Y    6-31g**
  C81       1.949  1.900  0.770   12.000    Y    Y      Y    6-31g**
  C82       1.949  1.900  0.770   12.000    Y    Y      Y    6-31g**
  H83       1.597  1.150  0.320    1.008    Y    Y      Y    6-31g**
  H84       1.597  1.150  0.320    1.008    Y    Y      Y    6-31g**
  H85       1.597  1.150  0.320    1.008    Y    Y      Y    6-31g**
  H86       1.597  1.150  0.320    1.008    Y    Y      Y    6-31g**
  H87       1.597  1.150  0.320    1.008    Y    Y      Y    6-31g**
  C88       1.949  1.900  0.770   12.000    Y    Y      Y    6-31g**
  C89       1.949  1.900  0.770   12.000    Y    Y      Y    6-31g**
  C90       1.949  1.900  0.770   12.000    Y    Y      Y    6-31g**
  C91       1.949  1.900  0.770   12.000    Y    Y      Y    6-31g**
  C92       1.949  1.900  0.770   12.000    Y    Y      Y    6-31g**
  C93       1.949  1.900  0.770   12.000    Y    Y      Y    6-31g**
  H94       1.597  1.150  0.320    1.008    Y    Y      Y    6-31g**
  H95       1.597  1.150  0.320    1.008    Y    Y      Y    6-31g**
  H96       1.597  1.150  0.320    1.008    Y    Y      Y    6-31g**
  H97       1.597  1.150  0.320    1.008    Y    Y      Y    6-31g**
  H98       1.597  1.150  0.320    1.008    Y    Y      Y    6-31g**
  O99       1.702  1.600  0.730   15.995    Y    Y      Y    6-31g**
  O100      1.702  1.600  0.730   15.995    Y    Y      Y    6-31g**
  P101      2.147  2.074  1.060   30.974    Y    Y      Y    6-31g**
  O102      1.702  1.600  0.730   15.995    Y    Y      Y    6-31g**
  N103      1.831  1.600  0.750   14.003    Y    Y      Y    6-31g**
  H104      1.597  1.150  0.320    1.008    Y    Y      Y    6-31g**
  C105      1.949  1.900  0.770   12.000    Y    Y      Y    6-31g**
  C106      1.949  1.900  0.770   12.000    Y    Y      Y    6-31g**
  C107      1.949  1.900  0.770   12.000    Y    Y      Y    6-31g**
  C108      1.949  1.900  0.770   12.000    Y    Y      Y    6-31g**
  C109      1.949  1.900  0.770   12.000    Y    Y      Y    6-31g**
  C110      1.949  1.900  0.770   12.000    Y    Y      Y    6-31g**
  C111      1.949  1.900  0.770   12.000    Y    Y      Y    6-31g**
  H112      1.597  1.150  0.320    1.008    Y    Y      Y    6-31g**
  H113      1.597  1.150  0.320    1.008    Y    Y      Y    6-31g**
  H114      1.597  1.150  0.320    1.008    Y    Y      Y    6-31g**
  H115      1.597  1.150  0.320    1.008    Y    Y      Y    6-31g**
  H116      1.597  1.150  0.320    1.008    Y    Y      Y    6-31g**
  H117      1.597  1.150  0.320    1.008    Y    Y      Y    6-31g**
  N118      1.831  1.600  0.750   14.003    Y    Y      Y    6-31g**
  S119      2.070  1.900  1.020   31.972    Y    Y      Y    6-31g**
  O120      1.702  1.600  0.730   15.995    Y    Y      Y    6-31g**
  O121      1.702  1.600  0.730   15.995    Y    Y      Y    6-31g**
  C122      1.949  1.900  0.770   12.000    Y    Y      Y    6-31g**
  F123      1.736  1.682  0.720   18.998    Y    Y      Y    6-31g**
  F124      1.736  1.682  0.720   18.998    Y    Y      Y    6-31g**
  F125      1.736  1.682  0.720   18.998    Y    Y      Y    6-31g**
  C126      1.949  1.900  0.770   12.000    Y    Y      Y    6-31g**
  C127      1.949  1.900  0.770   12.000    Y    Y      Y    6-31g**
  C128      1.949  1.900  0.770   12.000    Y    Y      Y    6-31g**
  C129      1.949  1.900  0.770   12.000    Y    Y      Y    6-31g**
  N130      1.831  1.600  0.750   14.003    Y    Y      Y    6-31g**
  H131      1.597  1.150  0.320    1.008    Y    Y      Y    6-31g**
  H132      1.597  1.150  0.320    1.008    Y    Y      Y    6-31g**
  H133      1.597  1.150  0.320    1.008    Y    Y      Y    6-31g**
  H134      1.597  1.150  0.320    1.008    Y    Y      Y    6-31g**
  H135      1.597  1.150  0.320    1.008    Y    Y      Y    6-31g**
  S136      2.070  1.900  1.020   31.972    Y    Y      Y    6-31g**
  O137      1.702  1.600  0.730   15.995    Y    Y      Y    6-31g**
  O138      1.702  1.600  0.730   15.995    Y    Y      Y    6-31g**
  C139      1.949  1.900  0.770   12.000    Y    Y      Y    6-31g**
  C140      1.949  1.900  0.770   12.000    Y    Y      Y    6-31g**
  N141      1.831  1.600  0.750   14.003    Y    Y      Y    6-31g**
  C142      1.949  1.900  0.770   12.000    Y    Y      Y    6-31g**
  C143      1.949  1.900  0.770   12.000    Y    Y      Y    6-31g**
  C144      1.949  1.900  0.770   12.000    Y    Y      Y    6-31g**
  H145      1.597  1.150  0.320    1.008    Y    Y      Y    6-31g**
  H146      1.597  1.150  0.320    1.008    Y    Y      Y    6-31g**
  H147      1.597  1.150  0.320    1.008    Y    Y      Y    6-31g**
  H148      1.597  1.150  0.320    1.008    Y    Y      Y    6-31g**
  
  Peak memory usage:    768 Mb
  
  end of program pre
   
 Time(pre)  user:        0.9  user+sys:        0.9  wallclock:        3.6
  
  start of program onee
  
  smallest eigenvalue of S:    2.199E-04
  number of canonical orbitals.....         1674
  Peak memory usage:    900 Mb
  
  end of program onee
   
 Time(onee)  user:       17.5  user+sys:       17.5  wallclock:       40.4
  
  start of program hfig
  
  initial wavefunction generated automatically from atomic wavefunctions
 
  Irreducible     Total no   No of occupied orbitals 
  representation  orbitals   Shell_1  Shell_2    ...
  No Symm         1674        340
  ------------------------
  Orbital occupation/shell    1.000
 
  Peak memory usage:    833 Mb
  
  end of program hfig
   
 Time(hfig)  user:       28.6  user+sys:       28.6  wallclock:       65.7
  
  start of program probe
  
  Peak memory usage:    826 Mb
  
  end of program probe
   
 Time(probe)  user:       20.3  user+sys:       20.3  wallclock:       49.1
  
  start of program grid
  
   grid     grid set  grid #  grid sym
  ------    --------  ------  --------
  coarse        0        0        1
  medium        2        1        1
  fine          0        0        1
  ultrafine     4        2        1
  charge       -1        3        1
  gradient      4        2        1
  density       0        0        1
  DFT-fine    -13        4        1
  DFT-med.    -13        4        1
  DFT-grad    -13        4        1
  DFT-der2      0        0        1
  DFT-cphf      0        0        1
  LMP2-enrg     4        2        1
  LMP2-grad     2        1        1
  DFT-cphf2     0        0        1
  PBF-dens      0        0        1
  plotting      0        0        1
  Rel-grad    -17        0        1
  
  number of gridpoints: 
     atom        C1       C2       C3       C4       H5       C6       C7
  grid # 1      100       94      100       97      110       94      101
  grid # 2      358      336      360      358      424      335      359
  grid # 3       12       28       15       11      190       18       10
  grid # 4    48124    48124    48124    48124    48426    48124    48124
   
  number of gridpoints: 
     atom        C8       C9      H10      C11      C12      C13      C14
  grid # 1       96      100      108      101      102       98       94
  grid # 2      348      355      421      361      366      340      337
  grid # 3       10        7      186       28       48       48       48
  grid # 4    48124    48124    48426    48124    48124    48124    48124
   
  number of gridpoints: 
     atom       C15      C16      H17      H18      H19      H20      C21
  grid # 1       94       96      118      118      117      112      101
  grid # 2      338      337      443      450      447      430      364
  grid # 3       38       29      363      419      383      200       32
  grid # 4    48124    48124    48426    48426    48426    48426    48124
   
  number of gridpoints: 
     atom       C22      C23      C24      C25      C26      H27      H28
  grid # 1      101       95       94       94       96      113      118
  grid # 2      356      337      335      335      337      435      452
  grid # 3        9       25       37       44       39      256      419
  grid # 4    48124    48124    48124    48124    48124    48426    48426
   
  number of gridpoints: 
     atom       H29      H30     Si31     Si32      C33      C34      C35
  grid # 1      118      118      471      473       94       93       92
  grid # 2      453      446      471      473      336      335      334
  grid # 3      424      357        9        7       42       41       19
  grid # 4    48426    48426    38542    38542    48124    48124    48124
   
  number of gridpoints: 
     atom       C36      C37      C38      H39      H40      H41      H42
  grid # 1      100       97       94      118      118      112      112
  grid # 2      360      339      337      453      451      433      432
  grid # 3       19       34       41      424      417      220      229
  grid # 4    48124    48124    48124    48426    48426    48426    48426
   
  number of gridpoints: 
     atom       H43      C44      C45      C46      C47      C48      C49
  grid # 1      118       93       93       93       98       95       93
  grid # 2      453      333      333      334      360      334      331
  grid # 3      425       28       29       23       12       14       23
  grid # 4    48426    48124    48124    48124    48124    48124    48124
   
  number of gridpoints: 
     atom       H50      H51      H52      H53      H54      C55      C56
  grid # 1      114      111      108      111      117       93       93
  grid # 2      441      435      420      424      448      330      334
  grid # 3      288      269      147      169      360       29       31
  grid # 4    48426    48426    48426    48426    48426    48124    48124
   
  number of gridpoints: 
     atom       C57      C58      C59      C60      H61      H62      H63
  grid # 1       92       98       94       93      117      117      110
  grid # 2      335      358      329      331      451      449      424
  grid # 3       18        9       10       18      386      367      169
  grid # 4    48124    48124    48124    48124    48426    48426    48426
   
  number of gridpoints: 
     atom       H64      H65      C66      C67      C68      C69      C70
  grid # 1      112      117       94       94       92      101       96
  grid # 2      429      445      335      335      335      358      338
  grid # 3      216      349       48       38       17       12       27
  grid # 4    48426    48426    48124    48124    48124    48124    48124
   
  number of gridpoints: 
     atom       C71      H72      H73      H74      H75      H76      C77
  grid # 1       94      118      118      112      107      118       93
  grid # 2      336      453      453      438      413      451      330
  grid # 3       44      424      418      259      132      408       29
  grid # 4    48124    48426    48426    48426    48426    48426    48124
   
  number of gridpoints: 
     atom       C78      C79      C80      C81      C82      H83      H84
  grid # 1       94       92      100       94       93      113      117
  grid # 2      334      335      357      331      330      440      451
  grid # 3       31       19        8       16       25      291      400
  grid # 4    48124    48124    48124    48124    48124    48426    48426
   
  number of gridpoints: 
     atom       H85      H86      H87      C88      C89      C90      C91
  grid # 1      110      108      112       94       94       92       99
  grid # 2      434      421      434      335      335      337      360
  grid # 3      227      147      251       48       48       31       16
  grid # 4    48426    48426    48426    48124    48124    48124    48124
   
  number of gridpoints: 
     atom       C92      C93      H94      H95      H96      H97      H98
  grid # 1       94       93      118      118      111      109      117
  grid # 2      336      335      453      452      435      429      450
  grid # 3       22       32      421      421      233      167      374
  grid # 4    48124    48124    48426    48426    48426    48426    48426
   
  number of gridpoints: 
     atom       O99     O100     P101     O102     N103     H104     C105
  grid # 1      111      112      447      116       98       98       92
  grid # 2      432      436      447      452      354      394      324
  grid # 3       26       51        8       61       10       62        6
  grid # 4    47716    47716    38640    47716    47928    48426    48124
   
  number of gridpoints: 
     atom      C106     C107     C108     C109     C110     C111     H112
  grid # 1       95       95       95       96       95       95      118
  grid # 2      332      330      327      353      332      332      448
  grid # 3       33       23       10        8       19       33      404
  grid # 4    48124    48124    48124    48124    48124    48124    48426
   
  number of gridpoints: 
     atom      H113     H114     H115     H116     H117     N118     S119
  grid # 1      111      108      107      118      102      109      431
  grid # 2      430      411      424      449      400      399      431
  grid # 3      188       98      182      409       53       13        9
  grid # 4    48426    48426    48426    48426    48426    47928    48492
   
  number of gridpoints: 
     atom      O120     O121     C122     F123     F124     F125     C126
  grid # 1      119      118       89      512      516      530       91
  grid # 2      488      459      319      512      516      530      321
  grid # 3      152       81        7       72       80      220        6
  grid # 4    47716    47716    48124    47062    47062    47062    48124
   
  number of gridpoints: 
     atom      C127     C128     C129     N130     H131     H132     H133
  grid # 1       93       93       94       96      103      111      117
  grid # 2      330      329      326      340      412      439      459
  grid # 3       17       21       10        7       77      254      447
  grid # 4    48124    48124    48124    47928    48426    48426    48426
   
  number of gridpoints: 
     atom      H134     H135     S136     O137     O138     C139     C140
  grid # 1      115      100      446      119      122       96       96
  grid # 2      449      401      446      479      488      330      335
  grid # 3      311       62       12      172      197       30       29
  grid # 4    48426    48426    48492    47716    47716    48124    48124
   
  number of gridpoints: 
     atom      N141     C142     C143     C144     H145     H146     H147
  grid # 1      112       98       96       96      117      117      113
  grid # 2      413      357      329      331      451      450      443
  grid # 3       65       31       33       33      396      385      305
  grid # 4    47928    48124    48124    48124    48426    48426    48426
   
  number of gridpoints: 
     atom      H148    total
  grid # 1      117    18352
  grid # 2      452    57838
  grid # 3      409    19335
  grid # 4    48426  7104526
   
  Peak memory usage:    795 Mb
  
  end of program grid
   
 Time(grid)  user:     1100.4  user+sys:     1100.4  wallclock:     2555.1
  
  start of program rwr
  
  Peak memory usage:    814 Mb
  
  end of program rwr
   
 Time(rwr)  user:       74.1  user+sys:       74.1  wallclock:      162.0
  
  start of program scf
  
 number of electrons..........        680
 number of alpha electrons....        340
 number of beta electrons.....        340
 number of orbitals, total....       1674
 number of doubly-occ'd orbs..        340
 number of open shell orbs....          0
 number of occupied orbitals..        340
 number of virtual orbitals...       1334
 number of hamiltonians.......          1
 number of shells.............          1
 SCF type: DFT=M06-2X
 Energy computed with NOPS off.
  
       i  u  d  i  g                   
       t  p  i  c  r                                 RMS    maximum
       e  d  i  u  i                       energy  density   DIIS  
       r  t  s  t  d       total energy    change  change    error 
  
etot    1  N  N  1  U   -5562.75639217677           3.7E-03  1.0E-01
etot    2  N  Y  1  U   -5541.12842786821 -2.2E+01  1.5E-02  1.0E-01
etot    3  N  Y  1  U   -5344.26143909654 -2.0E+02  1.4E-02  3.0E-01
etot    4  N  Y  1  U   -5562.29095560451  2.2E+02  3.3E-03  1.1E-01
etot    5  N  Y  1  U   -5570.85459957352  8.6E+00  2.3E-03  4.7E-02
etot    6  N  Y  1  U   -5564.83046394238 -6.0E+00  1.6E-03  6.8E-02
etot    7  N  Y  1  U   -5575.22730300002  1.0E+01  4.8E-04  2.2E-02
etot    8  N  Y  1  U   -5575.51640424959  2.9E-01  1.5E-04  1.0E-02
etot    9  N  Y  1  U   -5575.54668891785  3.0E-02  5.7E-05  2.6E-03
etot   10  N  Y  1  U   -5575.55242181486  5.7E-03  2.1E-05  9.3E-04
etot   11  N  Y  1  U   -5575.55288686372  4.7E-04  1.0E-05  4.2E-04
etot   12  N  Y  1  U   -5575.55305501286  1.7E-04  4.6E-06  1.2E-04
etot   13  N  N  1  U   -5575.55307965780  2.5E-05  0.0E+00  0.0E+00
  
  
 Energy components, in hartrees:
   (A)  Nuclear repulsion............   20759.17984268951
   (E)  Total one-electron terms.....  -49045.54061309542
   (F)    Electron-nuclear...........  -54581.59425272232
   (H)    Kinetic....................    5536.05363962689
   (I)  Total two-electron terms.....   22710.80769074811
   (J)    Coulomb....................   23362.06869533205
   (K)    Exchange+Correlation.......    -651.26100458395
   (L)  Electronic energy............  -26334.73292234731  (E+I)
   (M)  -V/T.........................       2.00713494532  (-(A+F+I)/H)
   (N)  Total energy.................   -5575.55307965780  (A+L)
   (O)  Gas phase energy.............   -5575.55307965780
  
 SCFE: SCF energy: DFT(m06-2x)     -5575.55307965780 hartrees   iterations:  13
  
 
 HOMO energy:    -0.24924
 LUMO energy:    -0.06406
 
  Orbital energies (hartrees): 
   -90.17970   -90.15507   -78.21198   -67.00687   -67.00597   -25.29935
   -25.29816   -25.29467   -19.69182   -19.68914   -19.65912   -19.65646
   -19.63330   -19.62474   -19.60440   -14.82022   -14.81219   -14.79948
   -14.74318   -10.80953   -10.66378   -10.63973   -10.62496   -10.61816
   -10.61655   -10.60652   -10.59839   -10.59495   -10.59032   -10.59023
   -10.58091   -10.57046   -10.56943   -10.56798   -10.56579   -10.56344
   -10.56293   -10.56275   -10.56104   -10.56093   -10.55957   -10.55928
   -10.55612   -10.55538   -10.55507   -10.55378   -10.55334   -10.55206
   -10.55171   -10.55136   -10.55104   -10.55093   -10.55034   -10.55025
   -10.54984   -10.54946   -10.54907   -10.54844   -10.54792   -10.54778
   -10.54742   -10.54736   -10.54731   -10.54720   -10.54704   -10.54647
   -10.54632   -10.54597   -10.54557   -10.54548   -10.54526   -10.54517
   -10.54470   -10.54419   -10.54118   -10.54070   -10.53917   -10.53896
   -10.53861   -10.53844   -10.53775   -10.53738   -10.53564   -10.53523
   -10.53464   -10.53421   -10.53380   -10.53363   -10.53096   -10.52979
   -10.52428   -10.52281    -8.48977    -8.46365    -6.99101    -6.41209
    -6.41096    -6.41023    -6.38548    -6.38518    -6.38501    -5.53840
    -5.53727    -5.10934    -5.10870    -5.10689    -3.84809    -3.84795
    -3.84763    -3.84710    -3.84668    -3.84657    -1.46350    -1.37344
    -1.37118    -1.25171    -1.22900    -1.21623    -1.18635    -1.13953
    -1.10502    -1.10297    -1.09111    -1.08728    -1.06544    -0.99009
    -0.97859    -0.97084    -0.96360    -0.94612    -0.94421    -0.93999
    -0.93970    -0.93328    -0.93266    -0.92994    -0.91839    -0.90848
    -0.90543    -0.88736    -0.88494    -0.88020    -0.85077    -0.85043
    -0.84506    -0.84184    -0.84022    -0.83691    -0.83515    -0.83383
    -0.83304    -0.83204    -0.82825    -0.82637    -0.82621    -0.82513
    -0.82364    -0.82124    -0.82091    -0.81908    -0.81724    -0.81364
    -0.79838    -0.76323    -0.75894    -0.74701    -0.73079    -0.71734
    -0.70736    -0.70244    -0.70089    -0.69588    -0.69025    -0.68923
    -0.68635    -0.67933    -0.67831    -0.67728    -0.67494    -0.67244
    -0.67229    -0.67139    -0.67073    -0.66994    -0.66644    -0.66290
    -0.66042    -0.66014    -0.65991    -0.65688    -0.65564    -0.65325
    -0.64845    -0.64127    -0.63513    -0.62380    -0.61628    -0.61433
    -0.60666    -0.60231    -0.59756    -0.58716    -0.58228    -0.58091
    -0.57922    -0.57897    -0.57627    -0.57513    -0.57321    -0.57215
    -0.57023    -0.56938    -0.56383    -0.55806    -0.55235    -0.54836
    -0.54790    -0.54490    -0.54092    -0.53731    -0.53650    -0.53421
    -0.53041    -0.52666    -0.52489    -0.52421    -0.52100    -0.51813
    -0.51781    -0.51677    -0.51433    -0.51152    -0.51103    -0.51038
    -0.50891    -0.50677    -0.50538    -0.50388    -0.50337    -0.50060
    -0.49934    -0.49867    -0.49768    -0.49680    -0.49667    -0.49466
    -0.49330    -0.49053    -0.49030    -0.48940    -0.48927    -0.48683
    -0.48385    -0.48265    -0.47951    -0.47908    -0.47759    -0.47359
    -0.47196    -0.46946    -0.46900    -0.46846    -0.46206    -0.46158
    -0.45711    -0.45441    -0.45074    -0.45014    -0.44698    -0.44560
    -0.44441    -0.44021    -0.43607    -0.43500    -0.43073    -0.43055
    -0.42785    -0.42370    -0.42259    -0.42230    -0.42021    -0.41913
    -0.41601    -0.41574    -0.41168    -0.41037    -0.40618    -0.40422
    -0.40220    -0.40017    -0.39686    -0.39412    -0.39251    -0.39198
    -0.39111    -0.38970    -0.38912    -0.38871    -0.38438    -0.38253
    -0.38181    -0.37989    -0.37816    -0.37525    -0.37272    -0.37054
    -0.36827    -0.35763    -0.35344    -0.35261    -0.35026    -0.34701
    -0.34577    -0.34292    -0.34214    -0.33745    -0.33708    -0.33501
    -0.32673    -0.32328    -0.31592    -0.31447    -0.31232    -0.30310
    -0.30290    -0.30015    -0.29966    -0.29816    -0.29627    -0.29564
    -0.29464    -0.28833    -0.28703    -0.28566    -0.28282    -0.28174
    -0.27886    -0.27517    -0.26903    -0.24924    -0.06406    -0.02782
    -0.01786    -0.00839     0.00227     0.01065     0.01654     0.01823
     0.02329     0.02473
 
  Peak memory usage:   1028 Mb
  
  end of program scf
   
 Time(scf)  user:    32706.3  user+sys:    32706.3  wallclock:   132341.4
  
  start of program ch
  
  gridpoints used for charge fit        16751
    out of a possible maximum of        19335
  
   Electrostatic potential fitting constrained to reproduce
     total charge:                yes
     dipole moment:               no 
     traceless quadrupole moment: no 
     traceless octapole moment:   no 
  
  Atomic charges from electrostatic potential: 
   
 Atom       C1           C2           C3           C4           H5      
 Charge   -0.15139     -0.49094      0.32900     -0.04307      0.21249
   
 Atom       C6           C7           C8           C9           H10     
 Charge   -0.23030     -0.08009      0.22730      0.01286      0.16124
   
 Atom       C11          C12          C13          C14          C15     
 Charge    0.12839      0.22252     -0.21336     -0.14279     -0.11330
   
 Atom       C16          H17          H18          H19          H20     
 Charge   -0.20412      0.14494      0.13518      0.13602      0.10750
   
 Atom       C21          C22          C23          C24          C25     
 Charge    0.05819      0.18951     -0.16056     -0.15787     -0.13373
   
 Atom       C26          H27          H28          H29          H30     
 Charge   -0.18671      0.12432      0.14422      0.13662      0.13678
   
 Atom       Si31         Si32         C33          C34          C35     
 Charge   -0.44447     -0.13852     -0.13470     -0.17739     -0.16277
   
 Atom       C36          C37          C38          H39          H40     
 Charge    0.28908     -0.22013     -0.12090      0.13287      0.14207
   
 Atom       H41          H42          H43          C44          C45     
 Charge    0.11276      0.13447      0.13394     -0.12821     -0.11544
   
 Atom       C46          C47          C48          C49          H50     
 Charge   -0.15082      0.10162     -0.11168     -0.14378      0.12874
   
 Atom       H51          H52          H53          H54          C55     
 Charge    0.09758      0.12504      0.12493      0.13621     -0.15562
   
 Atom       C56          C57          C58          C59          C60     
 Charge   -0.16065     -0.03285      0.12797     -0.13413     -0.12655
   
 Atom       H61          H62          H63          H64          H65     
 Charge    0.13552      0.13507      0.08665      0.11831      0.12253
   
 Atom       C66          C67          C68          C69          C70     
 Charge   -0.11859     -0.19050     -0.07668      0.14659     -0.18822
   
 Atom       C71          H72          H73          H74          H75     
 Charge   -0.14195      0.13010      0.14511      0.09402      0.14501
   
 Atom       H76          C77          C78          C79          C80     
 Charge    0.13108     -0.13229     -0.17050     -0.09399      0.13409
   
 Atom       C81          C82          H83          H84          H85     
 Charge   -0.20418     -0.10287      0.10760      0.13876      0.08168
   
 Atom       H86          H87          C88          C89          C90     
 Charge    0.12423      0.11662     -0.11358     -0.19841     -0.07038
   
 Atom       C91          C92          C93          H94          H95     
 Charge    0.04538     -0.06090     -0.14643      0.12908      0.14426
   
 Atom       H96          H97          H98          O99          O100    
 Charge    0.09086      0.10920      0.12250     -0.15207     -0.33857
   
 Atom       P101         O102         N103         H104         C105    
 Charge    1.05646     -0.62877     -0.39325      0.40121      0.18752
   
 Atom       C106         C107         C108         C109         C110    
 Charge   -0.12801     -0.15472     -0.12425      0.31709     -0.27519
   
 Atom       C111         H112         H113         H114         H115    
 Charge   -0.13270      0.14314      0.12922      0.08550      0.20064
   
 Atom       H116         H117         N118         S119         O120    
 Charge    0.14564      0.01534     -0.62774      0.76685     -0.47516
   
 Atom       O121         C122         F123         F124         F125    
 Charge   -0.54315      0.45627     -0.14041     -0.13690     -0.15164
   
 Atom       C126         C127         C128         C129         N130    
 Charge   -0.02381     -0.12386     -0.28495     -0.07084      0.02355
   
 Atom       H131         H132         H133         H134         H135    
 Charge    0.04487      0.15611      0.19072      0.15563      0.24934
   
 Atom       S136         O137         O138         C139         C140    
 Charge    0.60881     -0.41029     -0.41421     -0.42408      0.37006
   
 Atom       N141         C142         C143         C144         H145    
 Charge   -0.57098      0.56678     -0.47690      0.18900      0.19113
   
 Atom       H146         H147         H148    
 Charge    0.06312      0.22143      0.11471
  
  sum of atomic charges:     0.000000
   
 RMS Error   9.41E-04 hartrees
 
  Peak memory usage:    816 Mb
  
  end of program ch
   
 Time(ch)  user:       18.3  user+sys:       18.3  wallclock:       86.0
  
  start of program post
  
  Writing input files for PBF
  Peak memory usage:    759 Mb
  
  end of program post
   
 Time(post)  user:        0.8  user+sys:        0.8  wallclock:        3.7

  start of program pbf

Pbf Version 4.10

Molecular surface area:      849.55160   [A2]
Reaction field energy:       -17.20276   [kT]
  Peak memory usage: 722 Mb

  end of program pbf

 Time(pbf)  user:       15.9  user+sys:       16.0  wallclock:       59.8
  
  start of program solv
  
   number of surface charges from PBF   13638
   sum of surface charges     -0.00041
   
  nuclear repulsion energy.......   20759.179842690 hartrees
  Peak memory usage:    894 Mb
  
  end of program solv
   
 Time(solv)  user:       37.0  user+sys:       37.0  wallclock:      139.6
  
  start of program scf
  
 Energy computed with NOPS off.
  
       i  u  d  i  g                   
       t  p  i  c  r                                 RMS    maximum
       e  d  i  u  i                       energy  density   DIIS  
       r  t  s  t  d       total energy    change  change    error 
  
etot    1  N  N  1  U   -5575.58934637175           5.0E-05  7.3E-04
etot    2  N  Y  1  U   -5575.59005763794  7.1E-04  1.7E-05  5.7E-04
etot    3  N  Y  1  U   -5575.59029510975  2.4E-04  5.7E-06  2.7E-04
etot    4  N  Y  1  U   -5575.59035132832  5.6E-05  2.3E-06  6.7E-05
etot    5  N  N  1  U   -5575.59035760769  6.3E-06  0.0E+00  0.0E+00
  
  
 Energy components, in hartrees:
   (A)  Total zero-electron terms....   20762.12941185218
   (B)    Nuclear-nuclear............   20759.17984268951
   (C)    Nuclear-solvent............       2.94956916266
   (E)  Total one-electron terms.....  -49050.09516350378
   (F)    Electron-nuclear...........  -54583.21623722122
   (G)    Electron-solvent...........      -2.98783405184
   (H)    Kinetic....................    5536.10890776928
   (I)  Total two-electron terms.....   22712.37539404391
   (J)    Coulomb....................   23363.65708106644
   (K)    Exchange+Correlation.......    -651.28168702252
   (L)  Electronic energy............  -26337.71976945987  (E+I)
   (N)  Total quantum mech. energy...   -5575.59035760769  (A+L)
   (O)  Gas phase energy.............   -5575.55307965780
   (P)  Solution phase energy........   -5575.57122516310  (Q+R+S)
   (Q)    Total solute energy........   -5575.55209271851  (N-C-G)
   (R)    Total solvent energy.......      -0.01913244459  (C/2+G/2)
   (S)    Solute cavity energy.......       0.00000000000
   (U)  Reorganization energy........       0.00098693929  (Q-O)
   (V)  Solvation energy.............      -0.01814550530  (P-O)
  
 SCFE:  Solution phase energy: DFT(m06-2x)      -5575.57122516310 hartrees
        SCF iterations:   5
  
 
 HOMO energy:    -0.25229
 LUMO energy:    -0.06460
 
  Orbital energies (hartrees): 
   -90.18346   -90.16016   -78.21546   -67.01039   -67.00893   -25.30164
   -25.30158   -25.29811   -19.69555   -19.69299   -19.66273   -19.66040
   -19.63699   -19.63015   -19.60803   -14.82261   -14.81236   -14.79605
   -14.74736   -10.81341   -10.66460   -10.63690   -10.62821   -10.62138
   -10.61080   -10.60607   -10.59180   -10.59143   -10.59003   -10.58355
   -10.58129   -10.57289   -10.57178   -10.56812   -10.56637   -10.56556
   -10.56382   -10.56284   -10.56172   -10.56166   -10.55942   -10.55923
   -10.55846   -10.55838   -10.55761   -10.55415   -10.55319   -10.55302
   -10.55301   -10.55298   -10.55246   -10.55195   -10.55187   -10.55126
   -10.55120   -10.55057   -10.55046   -10.55038   -10.55007   -10.55005
   -10.55002   -10.54994   -10.54984   -10.54968   -10.54945   -10.54944
   -10.54895   -10.54817   -10.54807   -10.54807   -10.54771   -10.54751
   -10.54732   -10.54689   -10.54391   -10.54377   -10.54266   -10.54258
   -10.54184   -10.54115   -10.54089   -10.54075   -10.53929   -10.53867
   -10.53767   -10.53765   -10.53698   -10.53564   -10.53462   -10.53294
   -10.52742   -10.52647    -8.49342    -8.46867    -6.99451    -6.41574
    -6.41469    -6.41382    -6.39053    -6.39021    -6.39003    -5.54189
    -5.54021    -5.11284    -5.11220    -5.11038    -3.85158    -3.85144
    -3.85113    -3.85004    -3.84961    -3.84951    -1.46657    -1.37651
    -1.37411    -1.25574    -1.23284    -1.22084    -1.18989    -1.14398
    -1.10979    -1.10389    -1.09042    -1.08765    -1.06741    -0.99414
    -0.98162    -0.97069    -0.96652    -0.94720    -0.94705    -0.94306
    -0.94273    -0.93610    -0.93373    -0.92773    -0.92117    -0.91125
    -0.90292    -0.89020    -0.88511    -0.87928    -0.85317    -0.85035
    -0.84777    -0.84469    -0.84244    -0.83816    -0.83751    -0.83592
    -0.83502    -0.83396    -0.83092    -0.82940    -0.82845    -0.82798
    -0.82658    -0.82471    -0.82379    -0.82230    -0.82075    -0.81368
    -0.80106    -0.76656    -0.75726    -0.74163    -0.73387    -0.71645
    -0.71012    -0.70506    -0.70046    -0.69868    -0.69303    -0.69241
    -0.68892    -0.68059    -0.67968    -0.67897    -0.67716    -0.67512
    -0.67397    -0.67369    -0.67300    -0.66996    -0.66918    -0.66523
    -0.66302    -0.66274    -0.66075    -0.65923    -0.65643    -0.65527
    -0.65100    -0.64293    -0.63589    -0.62657    -0.61699    -0.61356
    -0.60904    -0.60444    -0.60011    -0.58919    -0.58236    -0.58161
    -0.58086    -0.57947    -0.57870    -0.57551    -0.57448    -0.57353
    -0.57215    -0.57146    -0.56673    -0.56040    -0.55539    -0.55039
    -0.54923    -0.54579    -0.54105    -0.53920    -0.53732    -0.53642
    -0.53338    -0.52947    -0.52764    -0.52664    -0.52309    -0.51950
    -0.51927    -0.51822    -0.51582    -0.51337    -0.51298    -0.51185
    -0.51055    -0.50913    -0.50678    -0.50499    -0.50423    -0.50179
    -0.50113    -0.50038    -0.49920    -0.49668    -0.49562    -0.49521
    -0.49360    -0.49253    -0.49189    -0.49168    -0.48990    -0.48895
    -0.48463    -0.48442    -0.48189    -0.48150    -0.47985    -0.47610
    -0.47485    -0.47192    -0.47158    -0.46474    -0.46380    -0.46130
    -0.45786    -0.45701    -0.45313    -0.45236    -0.44871    -0.44790
    -0.44589    -0.44338    -0.43833    -0.43757    -0.43369    -0.43315
    -0.43087    -0.42620    -0.42576    -0.42504    -0.42294    -0.42014
    -0.41962    -0.41878    -0.41475    -0.41309    -0.40876    -0.40742
    -0.40489    -0.40225    -0.39922    -0.39467    -0.39412    -0.39392
    -0.39328    -0.39285    -0.39144    -0.39106    -0.38743    -0.38556
    -0.38477    -0.38370    -0.38130    -0.37889    -0.37557    -0.37174
    -0.36606    -0.36164    -0.35565    -0.35317    -0.35127    -0.34993
    -0.34708    -0.34459    -0.34217    -0.34050    -0.33998    -0.33779
    -0.32915    -0.32502    -0.31839    -0.31624    -0.31284    -0.30635
    -0.30488    -0.30336    -0.30256    -0.30172    -0.29913    -0.29859
    -0.29733    -0.29176    -0.29041    -0.28912    -0.28620    -0.28519
    -0.28234    -0.27656    -0.27226    -0.25229    -0.06460    -0.02445
    -0.02084    -0.00356    -0.00097     0.00767     0.01375     0.01722
     0.02149     0.02180
 
  Peak memory usage:   1029 Mb
  
  end of program scf
   
 Time(scf)  user:    10277.4  user+sys:    10277.4  wallclock:    42648.6
  
  start of program sole
  
    SCRF                   solvation energy
  iteration          Hartrees            kcal/mol
     0               0.0000000            0.0000
     1              -0.0181455          -11.3865
  
  solvation energy not yet converged... 
  
  Peak memory usage:    813 Mb
  
  end of program sole
   
 Time(sole)  user:        0.2  user+sys:        0.2  wallclock:        0.9
  
  start of program ch
  
  gridpoints used for charge fit        16751
    out of a possible maximum of        16751
  
   Electrostatic potential fitting constrained to reproduce
     total charge:                yes
     dipole moment:               no 
     traceless quadrupole moment: no 
     traceless octapole moment:   no 
  
  Atomic charges from electrostatic potential: 
   
 Atom       C1           C2           C3           C4           H5      
 Charge   -0.15519     -0.50696      0.35249     -0.05529      0.22070
   
 Atom       C6           C7           C8           C9           H10     
 Charge   -0.23553     -0.07284      0.22179      0.01397      0.16616
   
 Atom       C11          C12          C13          C14          C15     
 Charge    0.12932      0.22337     -0.22294     -0.14713     -0.12107
   
 Atom       C16          H17          H18          H19          H20     
 Charge   -0.20276      0.15220      0.14332      0.14435      0.10640
   
 Atom       C21          C22          C23          C24          C25     
 Charge    0.05565      0.19397     -0.16829     -0.16366     -0.14310
   
 Atom       C26          H27          H28          H29          H30     
 Charge   -0.19102      0.12738      0.15255      0.14529      0.14351
   
 Atom       Si31         Si32         C33          C34          C35     
 Charge   -0.47090     -0.15471     -0.14303     -0.18467     -0.16574
   
 Atom       C36          C37          C38          H39          H40     
 Charge    0.29386     -0.22777     -0.12777      0.14120      0.15019
   
 Atom       H41          H42          H43          C44          C45     
 Charge    0.11447      0.13809      0.14232     -0.13611     -0.12499
   
 Atom       C46          C47          C48          C49          H50     
 Charge   -0.15383      0.10301     -0.11560     -0.14641      0.13400
   
 Atom       H51          H52          H53          H54          C55     
 Charge    0.10103      0.13053      0.12767      0.14093     -0.16222
   
 Atom       C56          C57          C58          C59          C60     
 Charge   -0.16778     -0.03938      0.13414     -0.12948     -0.13620
   
 Atom       H61          H62          H63          H64          H65     
 Charge    0.14456      0.14218      0.08607      0.11874      0.13115
   
 Atom       C66          C67          C68          C69          C70     
 Charge   -0.12610     -0.19831     -0.07750      0.14685     -0.18723
   
 Atom       C71          H72          H73          H74          H75     
 Charge   -0.14986      0.13871      0.15346      0.09580      0.14335
   
 Atom       H76          C77          C78          C79          C80     
 Charge    0.13906     -0.14360     -0.17558     -0.09843      0.14174
   
 Atom       C81          C82          H83          H84          H85     
 Charge   -0.20898     -0.10851      0.11598      0.14637      0.08160
   
 Atom       H86          H87          C88          C89          C90     
 Charge    0.12649      0.12111     -0.11849     -0.21106     -0.07149
   
 Atom       C91          C92          C93          H94          H95     
 Charge    0.04861     -0.05895     -0.15502      0.13715      0.15314
   
 Atom       H96          H97          H98          O99          O100    
 Charge    0.09328      0.10977      0.12927     -0.14232     -0.33614
   
 Atom       P101         O102         N103         H104         C105    
 Charge    1.05913     -0.63073     -0.38719      0.40188      0.20192
   
 Atom       C106         C107         C108         C109         C110    
 Charge   -0.13089     -0.16363     -0.12086      0.31127     -0.27813
   
 Atom       C111         H112         H113         H114         H115    
 Charge   -0.13743      0.15098      0.13672      0.08583      0.20060
   
 Atom       H116         H117         N118         S119         O120    
 Charge    0.15358      0.00892     -0.62469      0.77084     -0.48916
   
 Atom       O121         C122         F123         F124         F125    
 Charge   -0.54437      0.45346     -0.13752     -0.13340     -0.15262
   
 Atom       C126         C127         C128         C129         N130    
 Charge   -0.00338     -0.13793     -0.28600     -0.07235      0.01443
   
 Atom       H131         H132         H133         H134         H135    
 Charge    0.03575      0.15932      0.19800      0.16478      0.25425
   
 Atom       S136         O137         O138         C139         C140    
 Charge    0.62199     -0.42887     -0.43350     -0.42507      0.37652
   
 Atom       N141         C142         C143         C144         H145    
 Charge   -0.59197      0.56971     -0.48246      0.19258      0.19930
   
 Atom       H146         H147         H148    
 Charge    0.06856      0.22863      0.12486
  
  sum of atomic charges:     0.000000
   
 RMS Error   9.47E-04 hartrees
 
  Peak memory usage:    816 Mb
  
  end of program ch
   
 Time(ch)  user:       18.8  user+sys:       18.8  wallclock:       76.2
  
  start of program post
  
  Writing input files for PBF
  Peak memory usage:    759 Mb
  
  end of program post
   
 Time(post)  user:        0.8  user+sys:        0.8  wallclock:        3.7

  start of program pbf

Pbf Version 4.10

Molecular surface area:      849.55160   [A2]
Reaction field energy:       -19.51998   [kT]
  Peak memory usage: 722 Mb

  end of program pbf

 Time(pbf)  user:       17.0  user+sys:       17.1  wallclock:       63.1
  
  start of program solv
  
   number of surface charges from PBF   13638
   sum of surface charges     -0.00044
   
  nuclear repulsion energy.......   20759.179842690 hartrees
  Peak memory usage:    894 Mb
  
  end of program solv
   
 Time(solv)  user:       36.9  user+sys:       36.9  wallclock:      152.5
  
  start of program scf
  
 Energy computed with NOPS off.
  
       i  u  d  i  g                   
       t  p  i  c  r                                 RMS    maximum
       e  d  i  u  i                       energy  density   DIIS  
       r  t  s  t  d       total energy    change  change    error 
  
etot    1  N  N  1  U   -5575.59283330490           5.6E-06  1.0E-04
etot    2  N  N  1  U   -5575.59283377788  4.7E-07  0.0E+00  0.0E+00
  
  
 Energy components, in hartrees:
   (A)  Total zero-electron terms....   20762.41124478421
   (B)    Nuclear-nuclear............   20759.17984268951
   (C)    Nuclear-solvent............       3.23140209469
   (E)  Total one-electron terms.....  -49050.74159561317
   (F)    Electron-nuclear...........  -54583.58586670893
   (G)    Electron-solvent...........      -3.27241244427
   (H)    Kinetic....................    5536.11668354002
   (I)  Total two-electron terms.....   22712.73751705109
   (J)    Coulomb....................   23364.02067389718
   (K)    Exchange+Correlation.......    -651.28315684609
   (L)  Electronic energy............  -26338.00407856208  (E+I)
   (N)  Total quantum mech. energy...   -5575.59283377788  (A+L)
   (O)  Gas phase energy.............   -5575.55307965780
   (P)  Solution phase energy........   -5575.57232860309  (Q+R+S)
   (Q)    Total solute energy........   -5575.55182342830  (N-C-G)
   (R)    Total solvent energy.......      -0.02050517479  (C/2+G/2)
   (S)    Solute cavity energy.......       0.00000000000
   (U)  Reorganization energy........       0.00125622950  (Q-O)
   (V)  Solvation energy.............      -0.01924894529  (P-O)
  
 SCFE:  Solution phase energy: DFT(m06-2x)      -5575.57232860309 hartrees
        SCF iterations:   2
  
 
 HOMO energy:    -0.28027
 LUMO energy:    -0.06416
 
  Orbital energies (hartrees): 
   -62.28006   -46.17230   -42.49932   -41.03869   -37.93351   -37.48688
   -34.01978   -31.80427   -27.41597   -24.15589   -23.05319   -21.33660
   -20.74660   -19.35014   -19.28464   -19.06700   -18.50596   -18.16917
   -17.76875   -17.10414   -17.06196   -16.87420   -15.61077   -15.40133
   -14.99883   -14.49932   -14.17922   -14.05070   -13.59768   -13.54593
   -13.52555   -13.50011   -13.07977   -12.79824   -12.51074   -12.05032
   -11.86296   -11.82929   -11.81565   -11.62220   -11.53681   -11.45003
   -11.44013   -11.30687   -11.17326   -11.10773   -11.00714   -10.98208
   -10.96658   -10.94650   -10.81587   -10.78234   -10.76644   -10.71407
   -10.62465   -10.60019   -10.59972   -10.59317   -10.57910   -10.56809
   -10.54809   -10.52482   -10.49225   -10.48881   -10.47723   -10.46538
   -10.46379   -10.45437   -10.44791   -10.42611   -10.41454   -10.40209
   -10.38953   -10.33681   -10.33335   -10.31886   -10.30432   -10.28260
   -10.24315   -10.22837   -10.17594   -10.11122   -10.10148   -10.09942
   -10.00943    -9.97185    -9.94630    -9.86650    -9.80316    -9.79671
    -9.71148    -9.67247    -9.35725    -9.10902    -8.82435    -8.72863
    -8.55600    -8.46045    -8.25322    -8.20530    -8.08077    -7.89214
    -7.51485    -7.28931    -7.28638    -7.14371    -6.66353    -6.49422
    -5.29290    -5.23108    -5.02950    -3.92467    -1.35549    -1.33814
    -1.22649    -1.21028    -1.20612    -1.13664    -1.11675    -1.09228
    -1.07519    -1.06536    -1.03887    -1.02705    -0.98865    -0.98792
    -0.98224    -0.96364    -0.94314    -0.93996    -0.93249    -0.93186
    -0.92382    -0.90967    -0.90597    -0.90591    -0.90082    -0.89408
    -0.87976    -0.86207    -0.85859    -0.83715    -0.83158    -0.83101
    -0.82809    -0.80853    -0.80802    -0.80310    -0.80129    -0.79542
    -0.78360    -0.75717    -0.74764    -0.74421    -0.74213    -0.73936
    -0.73325    -0.73191    -0.73114    -0.72861    -0.72459    -0.72067
    -0.70467    -0.70423    -0.70327    -0.70304    -0.69429    -0.69416
    -0.69111    -0.68752    -0.68183    -0.68058    -0.67932    -0.67771
    -0.67594    -0.67575    -0.67221    -0.66762    -0.66160    -0.66006
    -0.66004    -0.65953    -0.65923    -0.65568    -0.65056    -0.64743
    -0.64661    -0.64388    -0.64044    -0.63980    -0.63860    -0.63514
    -0.63227    -0.63191    -0.62982    -0.62240    -0.62047    -0.62045
    -0.61585    -0.61303    -0.61080    -0.61074    -0.60625    -0.60465
    -0.59759    -0.59157    -0.58953    -0.58781    -0.58735    -0.58720
    -0.58026    -0.58011    -0.57993    -0.57960    -0.57100    -0.56843
    -0.56504    -0.56120    -0.56039    -0.55953    -0.55566    -0.54881
    -0.54753    -0.54747    -0.54664    -0.54628    -0.54453    -0.54333
    -0.53789    -0.53742    -0.53699    -0.53598    -0.53594    -0.53444
    -0.53432    -0.53155    -0.52931    -0.52881    -0.52784    -0.52611
    -0.52586    -0.52554    -0.52446    -0.52438    -0.51940    -0.51633
    -0.51581    -0.51078    -0.50835    -0.50552    -0.50474    -0.50442
    -0.50152    -0.50056    -0.50032    -0.49982    -0.49836    -0.49450
    -0.49196    -0.49094    -0.48998    -0.48921    -0.48876    -0.48737
    -0.48664    -0.48587    -0.48560    -0.48429    -0.48393    -0.48214
    -0.48120    -0.48006    -0.47910    -0.47837    -0.47716    -0.47640
    -0.47111    -0.46788    -0.46627    -0.46562    -0.46439    -0.46422
    -0.46391    -0.46380    -0.46263    -0.45548    -0.45265    -0.44993
    -0.44964    -0.44905    -0.44810    -0.44620    -0.44553    -0.44516
    -0.44508    -0.44277    -0.44158    -0.44135    -0.44068    -0.43882
    -0.43668    -0.43563    -0.43389    -0.43244    -0.43139    -0.42391
    -0.42097    -0.41859    -0.41844    -0.41494    -0.41420    -0.41368
    -0.41096    -0.40941    -0.40484    -0.40412    -0.40072    -0.39975
    -0.39215    -0.38062    -0.36945    -0.36802    -0.35611    -0.34758
    -0.34634    -0.34317    -0.33789    -0.32968    -0.31737    -0.31562
    -0.31408    -0.30978    -0.30588    -0.30429    -0.30228    -0.30113
    -0.29798    -0.29192    -0.28634    -0.28027    -0.06416    -0.02393
    -0.02071    -0.00306    -0.00090     0.00780     0.01382     0.01729
     0.02146     0.02175
 
  Peak memory usage:   1029 Mb
  
  end of program scf
   
 Time(scf)  user:     2562.0  user+sys:     2562.0  wallclock:    10659.8
  
  start of program sole
  
    SCRF                   solvation energy
  iteration          Hartrees            kcal/mol
     0               0.0000000            0.0000
     1              -0.0181455          -11.3865
     2              -0.0192489          -12.0789
  
  solvation energy not yet converged... 
  
  Peak memory usage:    813 Mb
  
  end of program sole
   
 Time(sole)  user:        0.2  user+sys:        0.2  wallclock:        0.4
  
  start of program ch
  
  gridpoints used for charge fit        16751
    out of a possible maximum of        16751
  
   Electrostatic potential fitting constrained to reproduce
     total charge:                yes
     dipole moment:               no 
     traceless quadrupole moment: no 
     traceless octapole moment:   no 
  
  Atomic charges from electrostatic potential: 
   
 Atom       C1           C2           C3           C4           H5      
 Charge   -0.15610     -0.50747      0.35408     -0.05776      0.22144
   
 Atom       C6           C7           C8           C9           H10     
 Charge   -0.23448     -0.07240      0.22197      0.01151      0.16625
   
 Atom       C11          C12          C13          C14          C15     
 Charge    0.12968      0.22359     -0.22355     -0.14636     -0.11994
   
 Atom       C16          H17          H18          H19          H20     
 Charge   -0.20398      0.15252      0.14390      0.14490      0.10665
   
 Atom       C21          C22          C23          C24          C25     
 Charge    0.05549      0.19399     -0.17041     -0.16274     -0.14327
   
 Atom       C26          H27          H28          H29          H30     
 Charge   -0.19049      0.12741      0.15302      0.14593      0.14387
   
 Atom       Si31         Si32         C33          C34          C35     
 Charge   -0.47336     -0.15552     -0.14304     -0.18455     -0.16604
   
 Atom       C36          C37          C38          H39          H40     
 Charge    0.29342     -0.22892     -0.12773      0.14183      0.15080
   
 Atom       H41          H42          H43          C44          C45     
 Charge    0.11459      0.13809      0.14287     -0.13680     -0.12564
   
 Atom       C46          C47          C48          C49          H50     
 Charge   -0.15361      0.10259     -0.11631     -0.14597      0.13434
   
 Atom       H51          H52          H53          H54          C55     
 Charge    0.10085      0.13078      0.12780      0.14125     -0.16165
   
 Atom       C56          C57          C58          C59          C60     
 Charge   -0.16815     -0.04062      0.13418     -0.12983     -0.13598
   
 Atom       H61          H62          H63          H64          H65     
 Charge    0.14539      0.14264      0.08604      0.11859      0.13189
   
 Atom       C66          C67          C68          C69          C70     
 Charge   -0.12600     -0.19864     -0.07772      0.14628     -0.18733
   
 Atom       C71          H72          H73          H74          H75     
 Charge   -0.14991      0.13937      0.15404      0.09555      0.14316
   
 Atom       H76          C77          C78          C79          C80     
 Charge    0.13964     -0.14387     -0.17568     -0.09861      0.14140
   
 Atom       C81          C82          H83          H84          H85     
 Charge   -0.20916     -0.10876      0.11674      0.14697      0.08118
   
 Atom       H86          H87          C88          C89          C90     
 Charge    0.12655      0.12123     -0.11807     -0.21171     -0.07127
   
 Atom       C91          C92          C93          H94          H95     
 Charge    0.04805     -0.05928     -0.15537      0.13772      0.15375
   
 Atom       H96          H97          H98          O99          O100    
 Charge    0.09324      0.10962      0.12971     -0.14160     -0.33573
   
 Atom       P101         O102         N103         H104         C105    
 Charge    1.05837     -0.63004     -0.38491      0.40182      0.19900
   
 Atom       C106         C107         C108         C109         C110    
 Charge   -0.12912     -0.16362     -0.12056      0.31011     -0.27953
   
 Atom       C111         H112         H113         H114         H115    
 Charge   -0.13717      0.15144      0.13754      0.08609      0.19995
   
 Atom       H116         H117         N118         S119         O120    
 Charge    0.15404      0.00902     -0.62470      0.77075     -0.49030
   
 Atom       O121         C122         F123         F124         F125    
 Charge   -0.54391      0.45397     -0.13740     -0.13326     -0.15255
   
 Atom       C126         C127         C128         C129         N130    
 Charge   -0.00023     -0.14042     -0.28441     -0.06965      0.01204
   
 Atom       H131         H132         H133         H134         H135    
 Charge    0.03459      0.15921      0.19834      0.16521      0.25510
   
 Atom       S136         O137         O138         C139         C140    
 Charge    0.61897     -0.42982     -0.43344     -0.42299      0.37635
   
 Atom       N141         C142         C143         C144         H145    
 Charge   -0.59461      0.56828     -0.48255      0.19405      0.20003
   
 Atom       H146         H147         H148    
 Charge    0.06910      0.22900      0.12584
  
  sum of atomic charges:     0.000000
   
 RMS Error   9.47E-04 hartrees
 
  Peak memory usage:    816 Mb
  
  end of program ch
   
 Time(ch)  user:       18.4  user+sys:       18.4  wallclock:       78.8
  
  start of program post
  
  Writing input files for PBF
  Peak memory usage:    759 Mb
  
  end of program post
   
 Time(post)  user:        0.8  user+sys:        0.8  wallclock:        5.9

  start of program pbf

Pbf Version 4.10

Molecular surface area:      849.55160   [A2]
Reaction field energy:       -19.81461   [kT]
  Peak memory usage: 722 Mb

  end of program pbf

 Time(pbf)  user:       17.3  user+sys:       17.4  wallclock:       66.9
  
  start of program solv
  
   number of surface charges from PBF   13638
   sum of surface charges     -0.00045
   
  nuclear repulsion energy.......   20759.179842690 hartrees
  Peak memory usage:    894 Mb
  
  end of program solv
   
 Time(solv)  user:       36.3  user+sys:       36.3  wallclock:      142.3
  
  start of program scf
  
 Energy computed with NOPS off.
  
       i  u  d  i  g                   
       t  p  i  c  r                                 RMS    maximum
       e  d  i  u  i                       energy  density   DIIS  
       r  t  s  t  d       total energy    change  change    error 
  
etot    1  N  N  1  U   -5575.59312919312           5.3E-06  8.9E-05
etot    2  N  N  1  U   -5575.59311573897 -1.3E-05  0.0E+00  0.0E+00
  
  
 Energy components, in hartrees:
   (A)  Total zero-electron terms....   20762.46396815250
   (B)    Nuclear-nuclear............   20759.17984268951
   (C)    Nuclear-solvent............       3.28412546299
   (E)  Total one-electron terms.....  -49050.40418780443
   (F)    Electron-nuclear...........  -54583.18247690517
   (G)    Electron-solvent...........      -3.32532549584
   (H)    Kinetic....................    5536.10361459658
   (I)  Total two-electron terms.....   22712.34710391296
   (J)    Coulomb....................   23363.62915133156
   (K)    Exchange+Correlation.......    -651.28204741860
   (L)  Electronic energy............  -26338.05708389147  (E+I)
   (N)  Total quantum mech. energy...   -5575.59311573897  (A+L)
   (O)  Gas phase energy.............   -5575.55307965780
   (P)  Solution phase energy........   -5575.57251572255  (Q+R+S)
   (Q)    Total solute energy........   -5575.55191570612  (N-C-G)
   (R)    Total solvent energy.......      -0.02060001643  (C/2+G/2)
   (S)    Solute cavity energy.......       0.00000000000
   (U)  Reorganization energy........       0.00116395168  (Q-O)
   (V)  Solvation energy.............      -0.01943606475  (P-O)
  
 SCFE:  Solution phase energy: DFT(m06-2x)      -5575.57251572255 hartrees
        SCF iterations:   2
  
 
 HOMO energy:    -0.25302
 LUMO energy:    -0.06535
 
  Orbital energies (hartrees): 
   -90.18515   -90.16094   -78.21648   -67.01098   -67.01005   -25.30201
   -25.30186   -25.29802   -19.69724   -19.69373   -19.66458   -19.66070
   -19.63737   -19.63165   -19.60807   -14.82491   -14.81242   -14.79783
   -14.74818   -10.81372   -10.66675   -10.63843   -10.63000   -10.62243
   -10.61051   -10.60476   -10.59245   -10.59033   -10.58981   -10.58292
   -10.58201   -10.57404   -10.57365   -10.56833   -10.56783   -10.56753
   -10.56412   -10.56281   -10.56249   -10.56202   -10.55944   -10.55927
   -10.55832   -10.55800   -10.55769   -10.55457   -10.55296   -10.55266
   -10.55258   -10.55254   -10.55248   -10.55229   -10.55198   -10.55158
   -10.55105   -10.55094   -10.55080   -10.55070   -10.55010   -10.55002
   -10.55001   -10.54992   -10.54990   -10.54988   -10.54978   -10.54944
   -10.54902   -10.54894   -10.54837   -10.54816   -10.54795   -10.54765
   -10.54752   -10.54747   -10.54436   -10.54382   -10.54374   -10.54318
   -10.54216   -10.54215   -10.54134   -10.54124   -10.54051   -10.53983
   -10.53884   -10.53827   -10.53788   -10.53675   -10.53542   -10.53421
   -10.52892   -10.52740    -8.49508    -8.46946    -6.99550    -6.41740
    -6.41636    -6.41547    -6.39131    -6.39099    -6.39081    -5.54249
    -5.54133    -5.11384    -5.11320    -5.11137    -3.85218    -3.85203
    -3.85173    -3.85115    -3.85073    -3.85063    -1.46683    -1.37683
    -1.37430    -1.25717    -1.23390    -1.22175    -1.19106    -1.14532
    -1.11067    -1.10402    -1.09090    -1.08841    -1.06906    -0.99501
    -0.98249    -0.97107    -0.96710    -0.94748    -0.94725    -0.94332
    -0.94324    -0.93646    -0.93488    -0.92724    -0.92172    -0.91176
    -0.90341    -0.89093    -0.88525    -0.87969    -0.85372    -0.85057
    -0.84836    -0.84498    -0.84287    -0.83837    -0.83768    -0.83620
    -0.83559    -0.83416    -0.83147    -0.82972    -0.82894    -0.82854
    -0.82689    -0.82574    -0.82423    -0.82269    -0.82183    -0.81436
    -0.80168    -0.76721    -0.75773    -0.74154    -0.73453    -0.71700
    -0.71083    -0.70564    -0.70081    -0.69921    -0.69344    -0.69269
    -0.68940    -0.68097    -0.67990    -0.67923    -0.67752    -0.67545
    -0.67447    -0.67406    -0.67336    -0.67045    -0.66946    -0.66594
    -0.66369    -0.66304    -0.66109    -0.65962    -0.65734    -0.65579
    -0.65170    -0.64356    -0.63615    -0.62722    -0.61778    -0.61408
    -0.60950    -0.60491    -0.60077    -0.58992    -0.58262    -0.58206
    -0.58108    -0.57969    -0.57903    -0.57598    -0.57489    -0.57421
    -0.57260    -0.57170    -0.56702    -0.56090    -0.55621    -0.55095
    -0.55009    -0.54631    -0.54149    -0.53967    -0.53778    -0.53671
    -0.53384    -0.52980    -0.52808    -0.52707    -0.52356    -0.51987
    -0.51946    -0.51857    -0.51611    -0.51386    -0.51346    -0.51212
    -0.51109    -0.50973    -0.50720    -0.50530    -0.50463    -0.50219
    -0.50142    -0.50082    -0.49972    -0.49686    -0.49606    -0.49561
    -0.49398    -0.49298    -0.49228    -0.49143    -0.49071    -0.48945
    -0.48476    -0.48465    -0.48221    -0.48208    -0.48029    -0.47665
    -0.47518    -0.47280    -0.47206    -0.46537    -0.46352    -0.46136
    -0.45828    -0.45739    -0.45365    -0.45282    -0.44919    -0.44824
    -0.44636    -0.44393    -0.43907    -0.43826    -0.43446    -0.43370
    -0.43147    -0.42650    -0.42633    -0.42536    -0.42343    -0.42055
    -0.42011    -0.41926    -0.41560    -0.41382    -0.40947    -0.40819
    -0.40559    -0.40279    -0.39960    -0.39514    -0.39496    -0.39412
    -0.39372    -0.39365    -0.39181    -0.39154    -0.38802    -0.38604
    -0.38519    -0.38441    -0.38229    -0.37948    -0.37614    -0.37235
    -0.36586    -0.36238    -0.35643    -0.35378    -0.35202    -0.35066
    -0.34774    -0.34532    -0.34234    -0.34095    -0.34071    -0.33848
    -0.32978    -0.32545    -0.31911    -0.31665    -0.31305    -0.30662
    -0.30531    -0.30355    -0.30313    -0.30206    -0.29949    -0.29895
    -0.29791    -0.29227    -0.29125    -0.29005    -0.28705    -0.28579
    -0.28285    -0.27715    -0.27285    -0.25302    -0.06535    -0.02468
    -0.02154    -0.00343    -0.00151     0.00696     0.01323     0.01685
     0.02093     0.02135
 
  Peak memory usage:   1029 Mb
  
  end of program scf
   
 Time(scf)  user:     2585.5  user+sys:     2585.5  wallclock:    10696.0
  
  start of program sole
  
    SCRF                   solvation energy
  iteration          Hartrees            kcal/mol
     0               0.0000000            0.0000
     1              -0.0181455          -11.3865
     2              -0.0192489          -12.0789
     3              -0.0194361          -12.1963
  
  solvation energy not yet converged... 
  
  Peak memory usage:    813 Mb
  
  end of program sole
   
 Time(sole)  user:        0.1  user+sys:        0.1  wallclock:        0.7
  
  start of program ch
  
  gridpoints used for charge fit        16751
    out of a possible maximum of        16751
  
   Electrostatic potential fitting constrained to reproduce
     total charge:                yes
     dipole moment:               no 
     traceless quadrupole moment: no 
     traceless octapole moment:   no 
  
  Atomic charges from electrostatic potential: 
   
 Atom       C1           C2           C3           C4           H5      
 Charge   -0.15385     -0.50908      0.35495     -0.05635      0.22116
   
 Atom       C6           C7           C8           C9           H10     
 Charge   -0.23668     -0.07187      0.22112      0.01514      0.16629
   
 Atom       C11          C12          C13          C14          C15     
 Charge    0.12897      0.22299     -0.22374     -0.14760     -0.12285
   
 Atom       C16          H17          H18          H19          H20     
 Charge   -0.20153      0.15258      0.14422      0.14528      0.10612
   
 Atom       C21          C22          C23          C24          C25     
 Charge    0.05470      0.19574     -0.16794     -0.16494     -0.14388
   
 Atom       C26          H27          H28          H29          H30     
 Charge   -0.19163      0.12704      0.15319      0.14606      0.14404
   
 Atom       Si31         Si32         C33          C34          C35     
 Charge   -0.47303     -0.15543     -0.14361     -0.18545     -0.16604
   
 Atom       C36          C37          C38          H39          H40     
 Charge    0.29440     -0.22723     -0.12879      0.14192      0.15091
   
 Atom       H41          H42          H43          C44          C45     
 Charge    0.11431      0.13762      0.14296     -0.13743     -0.12557
   
 Atom       C46          C47          C48          C49          H50     
 Charge   -0.15439      0.10381     -0.11543     -0.14707      0.13426
   
 Atom       H51          H52          H53          H54          C55     
 Charge    0.10078      0.13094      0.12767      0.14121     -0.16313
   
 Atom       C56          C57          C58          C59          C60     
 Charge   -0.16821     -0.04007      0.13534     -0.12859     -0.13744
   
 Atom       H61          H62          H63          H64          H65     
 Charge    0.14563      0.14265      0.08584      0.11822      0.13206
   
 Atom       C66          C67          C68          C69          C70     
 Charge   -0.12657     -0.19886     -0.07718      0.14685     -0.18698
   
 Atom       C71          H72          H73          H74          H75     
 Charge   -0.15061      0.13948      0.15407      0.09535      0.14307
   
 Atom       H76          C77          C78          C79          C80     
 Charge    0.13974     -0.14461     -0.17613     -0.09843      0.14264
   
 Atom       C81          C82          H83          H84          H85     
 Charge   -0.20868     -0.10927      0.11668      0.14702      0.08104
   
 Atom       H86          H87          C88          C89          C90     
 Charge    0.12652      0.12123     -0.11878     -0.21215     -0.07147
   
 Atom       C91          C92          C93          H94          H95     
 Charge    0.04889     -0.05807     -0.15593      0.13784      0.15380
   
 Atom       H96          H97          H98          O99          O100    
 Charge    0.09303      0.10953      0.12966     -0.14051     -0.33619
   
 Atom       P101         O102         N103         H104         C105    
 Charge    1.05949     -0.63106     -0.38391      0.40161      0.20638
   
 Atom       C106         C107         C108         C109         C110    
 Charge   -0.13170     -0.16474     -0.12204      0.31284     -0.27812
   
 Atom       C111         H112         H113         H114         H115    
 Charge   -0.13807      0.15200      0.13734      0.08634      0.19969
   
 Atom       H116         H117         N118         S119         O120    
 Charge    0.15420      0.00707     -0.62453      0.77020     -0.48964
   
 Atom       O121         C122         F123         F124         F125    
 Charge   -0.54446      0.45340     -0.13732     -0.13318     -0.15278
   
 Atom       C126         C127         C128         C129         N130    
 Charge   -0.00126     -0.13872     -0.28663     -0.07377      0.01308
   
 Atom       H131         H132         H133         H134         H135    
 Charge    0.03516      0.15913      0.19888      0.16589      0.25462
   
 Atom       S136         O137         O138         C139         C140    
 Charge    0.62161     -0.43071     -0.43614     -0.42525      0.37633
   
 Atom       N141         C142         C143         C144         H145    
 Charge   -0.59275      0.57053     -0.48319      0.19210      0.20047
   
 Atom       H146         H147         H148    
 Charge    0.06895      0.22896      0.12632
  
  sum of atomic charges:     0.000000
   
 RMS Error   9.48E-04 hartrees
 
  Peak memory usage:    816 Mb
  
  end of program ch
   
 Time(ch)  user:       18.4  user+sys:       18.4  wallclock:       72.0
  
  start of program post
  
  Writing input files for PBF
  Peak memory usage:    759 Mb
  
  end of program post
   
 Time(post)  user:        0.8  user+sys:        0.8  wallclock:        3.8

  start of program pbf

Pbf Version 4.10

Molecular surface area:      849.55160   [A2]
Reaction field energy:       -19.71307   [kT]
  Peak memory usage: 722 Mb

  end of program pbf

 Time(pbf)  user:       17.1  user+sys:       17.2  wallclock:       60.6
  
  start of program solv
  
   number of surface charges from PBF   13638
   sum of surface charges     -0.00044
   
  nuclear repulsion energy.......   20759.179842690 hartrees
  Peak memory usage:    894 Mb
  
  end of program solv
   
 Time(solv)  user:       36.5  user+sys:       36.5  wallclock:      151.2
  
  start of program scf
  
 Energy computed with NOPS off.
  
       i  u  d  i  g                   
       t  p  i  c  r                                 RMS    maximum
       e  d  i  u  i                       energy  density   DIIS  
       r  t  s  t  d       total energy    change  change    error 
  
etot    1  N  N  1  U   -5575.59302223807           8.4E-06  1.4E-04
etot    2  N  Y  1  U   -5575.59297144757 -5.1E-05  5.5E-06  2.5E-04
etot    3  N  Y  1  U   -5575.59304301836  7.2E-05  1.8E-07  9.5E-06
etot    4  N  N  1  U   -5575.59304326310  2.4E-07  0.0E+00  0.0E+00
  
  
 Energy components, in hartrees:
   (A)  Total zero-electron terms....   20762.43265691331
   (B)    Nuclear-nuclear............   20759.17984268951
   (C)    Nuclear-solvent............       3.25281422380
   (E)  Total one-electron terms.....  -49050.60347193616
   (F)    Electron-nuclear...........  -54583.41847496369
   (G)    Electron-solvent...........      -3.29398022393
   (H)    Kinetic....................    5536.10898325146
   (I)  Total two-electron terms.....   22712.57777175976
   (J)    Coulomb....................   23363.86018473710
   (K)    Exchange+Correlation.......    -651.28241297734
   (L)  Electronic energy............  -26338.02570017641  (E+I)
   (N)  Total quantum mech. energy...   -5575.59304326310  (A+L)
   (O)  Gas phase energy.............   -5575.55307965780
   (P)  Solution phase energy........   -5575.57246026303  (Q+R+S)
   (Q)    Total solute energy........   -5575.55187726296  (N-C-G)
   (R)    Total solvent energy.......      -0.02058300007  (C/2+G/2)
   (S)    Solute cavity energy.......       0.00000000000
   (U)  Reorganization energy........       0.00120239484  (Q-O)
   (V)  Solvation energy.............      -0.01938060523  (P-O)
  
 SCFE:  Solution phase energy: DFT(m06-2x)      -5575.57246026303 hartrees
        SCF iterations:   4
  
 
 HOMO energy:    -0.25248
 LUMO energy:    -0.06462
 
  Orbital energies (hartrees): 
   -90.18375   -90.16032   -78.21550   -67.01047   -67.00916   -25.30180
   -25.30149   -25.29814   -19.69544   -19.69312   -19.66361   -19.66186
   -19.63735   -19.63038   -19.60824   -14.82248   -14.81242   -14.79584
   -14.74744   -10.81351   -10.66441   -10.63690   -10.62811   -10.62143
   -10.61031   -10.60610   -10.59138   -10.59110   -10.58979   -10.58279
   -10.58122   -10.57285   -10.57179   -10.56813   -10.56637   -10.56530
   -10.56384   -10.56301   -10.56231   -10.56177   -10.55955   -10.55949
   -10.55868   -10.55851   -10.55816   -10.55427   -10.55339   -10.55319
   -10.55312   -10.55303   -10.55253   -10.55211   -10.55177   -10.55145
   -10.55120   -10.55083   -10.55081   -10.55074   -10.55032   -10.55014
   -10.55004   -10.55003   -10.54994   -10.54991   -10.54957   -10.54949
   -10.54895   -10.54854   -10.54840   -10.54820   -10.54794   -10.54770
   -10.54770   -10.54733   -10.54406   -10.54394   -10.54310   -10.54281
   -10.54201   -10.54130   -10.54110   -10.54090   -10.53973   -10.53936
   -10.53833   -10.53783   -10.53755   -10.53580   -10.53483   -10.53341
   -10.52776   -10.52661    -8.49376    -8.46884    -6.99456    -6.41607
    -6.41504    -6.41414    -6.39070    -6.39038    -6.39019    -5.54199
    -5.54045    -5.11289    -5.11225    -5.11043    -3.85168    -3.85153
    -3.85123    -3.85028    -3.84985    -3.84975    -1.46661    -1.37659
    -1.37412    -1.25645    -1.23292    -1.22102    -1.18993    -1.14483
    -1.11003    -1.10394    -1.09053    -1.08745    -1.06747    -0.99427
    -0.98177    -0.97074    -0.96675    -0.94735    -0.94714    -0.94321
    -0.94310    -0.93627    -0.93426    -0.92724    -0.92133    -0.91145
    -0.90281    -0.89041    -0.88516    -0.87919    -0.85336    -0.85042
    -0.84795    -0.84481    -0.84261    -0.83825    -0.83758    -0.83606
    -0.83541    -0.83399    -0.83107    -0.82954    -0.82870    -0.82817
    -0.82671    -0.82518    -0.82397    -0.82247    -0.82125    -0.81372
    -0.80125    -0.76667    -0.75715    -0.74122    -0.73399    -0.71640
    -0.71027    -0.70521    -0.70047    -0.69883    -0.69310    -0.69247
    -0.68906    -0.68077    -0.67974    -0.67907    -0.67726    -0.67525
    -0.67426    -0.67379    -0.67311    -0.67002    -0.66931    -0.66560
    -0.66334    -0.66288    -0.66083    -0.65934    -0.65685    -0.65528
    -0.65118    -0.64300    -0.63589    -0.62671    -0.61706    -0.61372
    -0.60921    -0.60463    -0.60024    -0.58932    -0.58247    -0.58176
    -0.58093    -0.57926    -0.57885    -0.57567    -0.57460    -0.57379
    -0.57229    -0.57141    -0.56678    -0.56057    -0.55550    -0.55049
    -0.54965    -0.54591    -0.54109    -0.53935    -0.53739    -0.53641
    -0.53347    -0.52955    -0.52774    -0.52677    -0.52321    -0.51959
    -0.51932    -0.51835    -0.51592    -0.51354    -0.51316    -0.51189
    -0.51071    -0.50934    -0.50690    -0.50508    -0.50431    -0.50193
    -0.50124    -0.50062    -0.49941    -0.49660    -0.49575    -0.49522
    -0.49376    -0.49272    -0.49202    -0.49133    -0.49023    -0.48897
    -0.48466    -0.48451    -0.48203    -0.48188    -0.47998    -0.47626
    -0.47499    -0.47229    -0.47178    -0.46490    -0.46344    -0.46137
    -0.45796    -0.45718    -0.45340    -0.45255    -0.44885    -0.44803
    -0.44603    -0.44359    -0.43854    -0.43786    -0.43409    -0.43340
    -0.43111    -0.42632    -0.42608    -0.42518    -0.42320    -0.42029
    -0.41979    -0.41897    -0.41519    -0.41352    -0.40897    -0.40765
    -0.40521    -0.40248    -0.39935    -0.39479    -0.39467    -0.39401
    -0.39345    -0.39313    -0.39161    -0.39135    -0.38760    -0.38575
    -0.38493    -0.38395    -0.38175    -0.37907    -0.37578    -0.37194
    -0.36564    -0.36182    -0.35589    -0.35333    -0.35117    -0.35009
    -0.34720    -0.34487    -0.34198    -0.34063    -0.34023    -0.33803
    -0.32930    -0.32511    -0.31856    -0.31631    -0.31294    -0.30648
    -0.30512    -0.30345    -0.30295    -0.30191    -0.29931    -0.29881
    -0.29760    -0.29199    -0.29073    -0.28949    -0.28657    -0.28543
    -0.28252    -0.27666    -0.27245    -0.25248    -0.06462    -0.02421
    -0.02106    -0.00319    -0.00115     0.00745     0.01358     0.01711
     0.02125     0.02158
 
  Peak memory usage:   1029 Mb
  
  end of program scf
   
 Time(scf)  user:     7676.8  user+sys:     7676.8  wallclock:    27225.7
  
  start of program sole
  
    SCRF                   solvation energy
  iteration          Hartrees            kcal/mol
     0               0.0000000            0.0000
     1              -0.0181455          -11.3865
     2              -0.0192489          -12.0789
     3              -0.0194361          -12.1963
     4              -0.0193806          -12.1615
  
  stopping: solvation energy converged
  
  iterations:   4    sfinal:    -12.1615 kcal/mol
  
  Peak memory usage:    813 Mb
  
  end of program sole
   
 Time(sole)  user:        0.2  user+sys:        0.2  wallclock:        0.4
  
  start of program post
  
  Writing input files for PBF
  Peak memory usage:    759 Mb
  
  end of program post
   
 Time(post)  user:        0.8  user+sys:        0.8  wallclock:        2.9

 Total cpu seconds     user:   57264.452   user+sys:   57264.452
  
 Total elapsed time:    227647 seconds

Job Type-II-Z-sulfonyl-bind-5-chkp-unrestrained-2-SPE completed on tethys at Mon Mar  6 05:19:30 2017
