Job Type-II-Z-sulfonyl-bind-2-chkp-scan-unrestrained.1-SPE started on tethys at Tue Mar 14 16:41:09 2017
jobid: tethys-0-58c81d21

  +--------------------------------------------------------------------+
  |  Jaguar version 9.5, release  11                                   |
  |                                                                    |
  |  Copyright Schrodinger, Inc.                                       |
  |  All Rights Reserved.                                              |
  |                                                                    |
  |  The following have contributed to Jaguar (listed alphabetically): |
  |  Mike Beachy, Art Bochevarov, Dale Braden, Yixiang Cao,            |
  |  Chris Cortis, Rich Friesner, Bill Goddard, Hod Greeley,           |
  |  Tom Hughes, Leif Jacobson, Jean-Marc Langlois,                    |
  |  Daniel Mainz, Rob Murphy, Dean Philipp, Tom Pollard,              |
  |  Murco Ringnalda, Mark Watson, Haoyu Yu.                           |
  |                                                                    |
  |  Use of this program should be acknowledged in publications as:    |
  |                                                                    |
  |  Jaguar, version 9.5, Schrodinger, Inc., New York, NY, 2017.       |
  |                                                                    |
  |  A. D. Bochevarov, E. Harder, T. F. Hughes, J. R. Greenwood,       |
  |  D. A. Braden, D. M. Philipp, D. Rinaldo, M. D. Halls,             |
  |  J. Zhang, R. A. Friesner, "Jaguar: A High-Performance Quantum     |
  |  Chemistry Software Program with Strengths in Life and Materials   |
  |  Sciences", Int. J. Quantum Chem., 2013, 113(18), 2110-2142.       |
  +--------------------------------------------------------------------+
  
  start of program pre
  
  Job name: Type-II-Z-sulfonyl-bind-2-chkp-scan-unrestrained.1-SPE
  Executables used: /usr/local/shared/schrodinger/current/jaguar-v9.5/bin/Linux-x86_64
  Temporary files : /scratch/ab2144/Type-II-Z-sulfonyl-bind-2-chkp-scan-unrestrained.1-SPE
  Maestro file (input):  Type-II-Z-sulfonyl-bind-2-chkp-scan-unrestrained.1-SPE.mae
  Maestro file (output): Type-II-Z-sulfonyl-bind-2-chkp-scan-unrestrained.1-SPE.01.mae
  
  basis set:             6-31g**                         
  net molecular charge:    0
  multiplicity:            1
  
  keygrid settings 
    wispc.....   7.500E-01
    ldens.....   0
    denspc....   7.500E-01
  
   grid     daf set  nls  grid set  Q type
  ------    -------  ---  --------  ------
  coarse       1      1       1        1
  medium       2      2       2        1
  fine         3      2       3        0
  ultrafine    4      2       4        1
  charge       0      1      -1        1
  gradient     5      2       4        1
  density      0      1       0        0
  DFT-fine     0      1     -13        0
  DFT-med.     0      1     -13        0
  DFT-grad     0      1     -13        0
  DFT-der2     0      1       0        0
  DFT-cphf     0      1       0        0
  LMP2-enrg    4      2       4        1
  LMP2-grad    5      2       2        1
  DFT-cphf2    0      1       0        0
  PBF-dens     0      1       0        0
  plotting     0      1       0        0
  Rel-grad     0      1     -17        0
  
  idftgrdm  100
  ndftgrdm   50    0    0
  idftgrdf  111
  ndftgrdf   85    0    0
  idftgrdg  111
  ndftgrdg   80    3    0
  idftgrdu  433
  ndftgrdu  105    0    0
  idftgrdd  433
  ndftgrdd  105    0    0
  idftgrdc  433
  ndftgrdc   26    0    0
  idftgrdp  433
  ndftgrdp   18    0    0
  
  number of basis functions....         1680
  
 Input geometry:
                                   angstroms
  atom               x                 y                 z
  C1            1.3076000000      3.0271000000     -1.0131000000 
  C2           -0.5463000000      5.1273000000     -0.5542000000 
  C3           -0.9768000000      3.7255000000     -0.3828000000 
  C4           -0.0981000000      2.7189000000     -0.5714000000 
  H5           -1.2529000000      5.9312000000     -0.3905000000 
  C6            4.3513000000      0.0190000000     -1.5560000000 
  C7            3.7111000000      0.1349000000     -0.3840000000 
  C8            2.5397000000      1.0434000000     -0.2854000000 
  C9            2.2713000000      1.9195000000     -1.2723000000 
  H10           5.1974000000     -0.6513000000     -1.6528000000 
  C11           1.7037000000      4.3243000000     -1.0918000000 
  C12           0.7170000000      5.4137000000     -0.8804000000 
  C13           1.1574000000      6.8153000000     -1.0309000000 
  C14           2.4345000000      7.0959000000     -1.3068000000 
  C15           3.4416000000      6.0255000000     -1.4549000000 
  C16           3.1119000000      4.7330000000     -1.3492000000 
  H17           0.4487000000      7.6268000000     -0.9152000000 
  H18           2.7441000000      8.1279000000     -1.4109000000 
  H19           4.4723000000      6.2989000000     -1.6417000000 
  H20           3.9015000000      3.9988000000     -1.4339000000 
  C21           3.9501000000      0.8444000000     -2.7147000000 
  C22           2.9700000000      1.7691000000     -2.5841000000 
  C23           2.5590000000      2.5606000000     -3.7746000000 
  C24           3.1787000000      2.3872000000     -4.9477000000 
  C25           4.2693000000      1.4012000000     -5.0725000000 
  C26           4.6345000000      0.6672000000     -4.0158000000 
  H27           1.7483000000      3.2741000000     -3.7094000000 
  H28           2.8758000000      2.9645000000     -5.8117000000 
  H29           4.7684000000      1.2694000000     -6.0238000000 
  H30           5.4313000000     -0.0592000000     -4.1168000000 
  Si31         -2.7192000000      3.3997000000      0.2146000000 
  Si32          4.3662000000     -0.7884000000      1.1043000000 
  C33          -2.6411000000      2.4237000000      4.8051000000 
  C34          -1.4907000000      2.5665000000      4.1378000000 
  C35          -1.5061000000      2.8858000000      2.6955000000 
  C36          -2.6737000000      3.0081000000      2.0391000000 
  C37          -3.9448000000      2.8548000000      2.7887000000 
  C38          -3.9279000000      2.5840000000      4.0990000000 
  H39          -2.6317000000      2.1898000000      5.8617000000 
  H40          -0.5456000000      2.4487000000      4.6522000000 
  H41          -0.5595000000      3.0090000000      2.1889000000 
  H42          -4.8936000000      2.9725000000      2.2803000000 
  H43          -4.8572000000      2.4755000000      4.6432000000 
  C44          -5.2693000000      7.2453000000     -0.6233000000 
  C45          -4.9795000000      6.9045000000      0.6373000000 
  C46          -4.1804000000      5.6922000000      0.9126000000 
  C47          -3.7532000000      4.9171000000     -0.0997000000 
  C48          -4.0662000000      5.3103000000     -1.4954000000 
  C49          -4.7863000000      6.4116000000     -1.7416000000 
  H50          -5.8522000000      8.1344000000     -0.8263000000 
  H51          -5.3262000000      7.5179000000      1.4589000000 
  H52          -3.9350000000      5.4612000000      1.9393000000 
  H53          -3.7082000000      4.7179000000     -2.3252000000 
  H54          -5.0114000000      6.6968000000     -2.7612000000 
  C55          -4.4632000000     -0.2184000000     -2.2157000000 
  C56          -3.7606000000      0.7344000000     -2.8381000000 
  C57          -3.2243000000      1.8791000000     -2.0725000000 
  C58          -3.4349000000      1.9700000000     -0.7476000000 
  C59          -4.1988000000      0.8977000000     -0.0624000000 
  C60          -4.6965000000     -0.1291000000     -0.7615000000 
  H61          -4.8527000000     -1.0601000000     -2.7732000000 
  H62          -3.5787000000      0.6667000000     -3.9028000000 
  H63          -2.6388000000      2.6244000000     -2.5949000000 
  H64          -4.3631000000      0.9284000000      1.0030000000 
  H65          -5.2583000000     -0.9053000000     -0.2584000000 
  C66           3.8163000000     -5.3522000000      0.2018000000 
  C67           5.0460000000     -4.8245000000      0.2145000000 
  C68           5.2329000000     -3.3859000000      0.4984000000 
  C69           4.1698000000     -2.6030000000      0.7494000000 
  C70           2.8108000000     -3.1899000000      0.7105000000 
  C71           2.6438000000     -4.4948000000      0.4647000000 
  H72           3.6780000000     -6.4057000000     -0.0039000000 
  H73           5.9071000000     -5.4499000000      0.0178000000 
  H74           6.2360000000     -2.9824000000      0.4875000000 
  H75           1.9501000000     -2.5669000000      0.9026000000 
  H76           1.6503000000     -4.9238000000      0.4545000000 
  C77           2.1396000000      0.5223000000      5.0165000000 
  C78           2.8027000000      1.4219000000      4.2816000000 
  C79           3.5265000000      0.9954000000      3.0664000000 
  C80           3.4984000000     -0.2908000000      2.6755000000 
  C81           2.7951000000     -1.2896000000      3.5178000000 
  C82           2.1483000000     -0.9008000000      4.6237000000 
  H83           1.6048000000      0.8332000000      5.9046000000 
  H84           2.8036000000      2.4650000000      4.5702000000 
  H85           4.0477000000      1.7414000000      2.4786000000 
  H86           2.8120000000     -2.3389000000      3.2626000000 
  H87           1.6418000000     -1.6304000000      5.2414000000 
  C88           8.8508000000      0.2924000000      1.9303000000 
  C89           8.2428000000     -0.6608000000      2.6457000000 
  C90           6.8290000000     -0.9974000000      2.3798000000 
  C91           6.1524000000     -0.3634000000      1.4070000000 
  C92           6.8253000000      0.7096000000      0.6336000000 
  C93           8.1054000000      1.0151000000      0.8802000000 
  H94           9.8862000000      0.5410000000      2.1243000000 
  H95           8.7847000000     -1.1876000000      3.4206000000 
  H96           6.3522000000     -1.7663000000      2.9756000000 
  H97           6.2882000000      1.2685000000     -0.1195000000 
  H98           8.5943000000      1.8005000000      0.3183000000 
  O99          -0.5574000000      1.4286000000     -0.4607000000 
  O100          1.7151000000      0.9744000000      0.8035000000 
  P101          0.2486000000      0.3486000000      0.4475000000 
  O102         -0.4164000000      0.0677000000      1.7626000000 
  N103         -2.9468000000     -2.8202000000     -0.3543000000 
  H104         -2.3640000000     -2.4323000000     -1.1230000000 
  C105         -2.6375000000     -2.3530000000      0.8948000000 
  C106         -5.1863000000     -2.0285000000      4.3134000000 
  C107         -4.2209000000     -1.0643000000      4.0284000000 
  C108         -3.3932000000     -1.2098000000      2.9162000000 
  C109         -3.5285000000     -2.3278000000      2.0686000000 
  C110         -4.4820000000     -3.3123000000      2.3859000000 
  C111         -5.3095000000     -3.1522000000      3.4920000000 
  H112         -5.8346000000     -1.9120000000      5.1770000000 
  H113         -4.1103000000     -0.1996000000      4.6735000000 
  H114         -2.6479000000     -0.4531000000      2.6863000000 
  H115         -4.5692000000     -4.2101000000      1.7885000000 
  H116         -6.0494000000     -3.9138000000      3.7180000000 
  H117         -2.0496000000     -1.4451000000      0.7957000000 
  N118          0.3735000000     -0.9627000000     -0.5083000000 
  S119          0.0073000000     -1.0633000000     -2.0487000000 
  O120          0.4397000000      0.0272000000     -2.9296000000 
  O121         -1.3771000000     -1.5690000000     -2.2670000000 
  C122          1.0693000000     -2.5179000000     -2.5243000000 
  F123          0.8854000000     -2.7774000000     -3.8280000000 
  F124          2.3625000000     -2.2584000000     -2.3213000000 
  F125          0.7286000000     -3.6129000000     -1.8281000000 
  C126         -0.8804000000     -3.3352000000      1.5123000000 
  C127         -1.2613000000     -4.5874000000      2.0707000000 
  C128         -1.1969000000     -4.4734000000      3.4528000000 
  C129         -0.7202000000     -3.1770000000      3.7343000000 
  N130         -0.4696000000     -2.5386000000      2.5860000000 
  H131         -0.4171000000     -3.1691000000      0.5496000000 
  H132         -1.5965000000     -5.4350000000      1.4910000000 
  H133         -1.4701000000     -5.2147000000      4.1898000000 
  H134         -0.5778000000     -2.6922000000      4.6900000000 
  H135         -0.2483000000     -1.5358000000      2.4587000000 
  S136         -3.9429000000     -4.1306000000     -0.8206000000 
  O137         -3.5760000000     -5.3092000000     -0.0271000000 
  O138         -5.3433000000     -3.7052000000     -0.8600000000 
  C139         -2.4256000000     -4.5838000000     -5.0326000000 
  C140         -1.6324000000     -4.8046000000     -3.9027000000 
  N141         -2.0964000000     -4.6738000000     -2.6567000000 
  C142         -3.3617000000     -4.3015000000     -2.5292000000 
  C143         -4.2519000000     -4.0469000000     -3.5670000000 
  C144         -3.7543000000     -4.2022000000     -4.8622000000 
  H145         -2.0006000000     -4.7028000000     -6.0236000000 
  H146         -0.5871000000     -5.0818000000     -3.9979000000 
  H147         -5.2689000000     -3.7376000000     -3.3601000000 
  H148         -4.3936000000     -4.0182000000     -5.7198000000 
   
  principal moments of inertia:
        amu*angstrom^2:    21961.72524    24496.34649    30650.67340
                g*cm^2: 3.64682982E-36 4.06771353E-36 5.08966343E-36
   
  rotational constants:
               cm^(-1):      0.00076759      0.00068817      0.00054999
                   GHz:      0.02301181      0.02063079      0.01648835
   
  Molecular weight:    1308.28 amu
   
  Stoichiometry: Si2C73PN4H56S2O7F3
[running at reduced cpu priority]
  Molecular Point Group: C1      
  Point Group used: C1
  
  nuclear repulsion energy.......   20895.505296864 hartrees
 
 Non-default options chosen:
   SCF calculation type: DFT(m06-2x)                 
   DFT=M06-2X
   Solvation energy will be computed using PBF
     -solute cavity energy will not be included
     -surface area terms will not be included
   Highest accuracy cutoffs used in SCF
   Solvent: other                                                           
   Internal dielectric constant:    1.000
   Continuum dielectric constant:   2.380
   Solvent probe molecule radius:   2.760
  
 Temporary integer options set:
     73=  2
  
  atom       vdw   vdw2    cov     mass  grid  daf  charge   basis
  C1        1.949  1.900  0.770   12.000    Y    Y      Y    6-31g**
  C2        1.949  1.900  0.770   12.000    Y    Y      Y    6-31g**
  C3        1.949  1.900  0.770   12.000    Y    Y      Y    6-31g**
  C4        1.949  1.900  0.770   12.000    Y    Y      Y    6-31g**
  H5        1.597  1.150  0.320    1.008    Y    Y      Y    6-31g**
  C6        1.949  1.900  0.770   12.000    Y    Y      Y    6-31g**
  C7        1.949  1.900  0.770   12.000    Y    Y      Y    6-31g**
  C8        1.949  1.900  0.770   12.000    Y    Y      Y    6-31g**
  C9        1.949  1.900  0.770   12.000    Y    Y      Y    6-31g**
  H10       1.597  1.150  0.320    1.008    Y    Y      Y    6-31g**
  C11       1.949  1.900  0.770   12.000    Y    Y      Y    6-31g**
  C12       1.949  1.900  0.770   12.000    Y    Y      Y    6-31g**
  C13       1.949  1.900  0.770   12.000    Y    Y      Y    6-31g**
  C14       1.949  1.900  0.770   12.000    Y    Y      Y    6-31g**
  C15       1.949  1.900  0.770   12.000    Y    Y      Y    6-31g**
  C16       1.949  1.900  0.770   12.000    Y    Y      Y    6-31g**
  H17       1.597  1.150  0.320    1.008    Y    Y      Y    6-31g**
  H18       1.597  1.150  0.320    1.008    Y    Y      Y    6-31g**
  H19       1.597  1.150  0.320    1.008    Y    Y      Y    6-31g**
  H20       1.597  1.150  0.320    1.008    Y    Y      Y    6-31g**
  C21       1.949  1.900  0.770   12.000    Y    Y      Y    6-31g**
  C22       1.949  1.900  0.770   12.000    Y    Y      Y    6-31g**
  C23       1.949  1.900  0.770   12.000    Y    Y      Y    6-31g**
  C24       1.949  1.900  0.770   12.000    Y    Y      Y    6-31g**
  C25       1.949  1.900  0.770   12.000    Y    Y      Y    6-31g**
  C26       1.949  1.900  0.770   12.000    Y    Y      Y    6-31g**
  H27       1.597  1.150  0.320    1.008    Y    Y      Y    6-31g**
  H28       1.597  1.150  0.320    1.008    Y    Y      Y    6-31g**
  H29       1.597  1.150  0.320    1.008    Y    Y      Y    6-31g**
  H30       1.597  1.150  0.320    1.008    Y    Y      Y    6-31g**
  Si31      2.217  2.147  1.110   27.977    Y    Y      Y    6-31g**
  Si32      2.217  2.147  1.110   27.977    Y    Y      Y    6-31g**
  C33       1.949  1.900  0.770   12.000    Y    Y      Y    6-31g**
  C34       1.949  1.900  0.770   12.000    Y    Y      Y    6-31g**
  C35       1.949  1.900  0.770   12.000    Y    Y      Y    6-31g**
  C36       1.949  1.900  0.770   12.000    Y    Y      Y    6-31g**
  C37       1.949  1.900  0.770   12.000    Y    Y      Y    6-31g**
  C38       1.949  1.900  0.770   12.000    Y    Y      Y    6-31g**
  H39       1.597  1.150  0.320    1.008    Y    Y      Y    6-31g**
  H40       1.597  1.150  0.320    1.008    Y    Y      Y    6-31g**
  H41       1.597  1.150  0.320    1.008    Y    Y      Y    6-31g**
  H42       1.597  1.150  0.320    1.008    Y    Y      Y    6-31g**
  H43       1.597  1.150  0.320    1.008    Y    Y      Y    6-31g**
  C44       1.949  1.900  0.770   12.000    Y    Y      Y    6-31g**
  C45       1.949  1.900  0.770   12.000    Y    Y      Y    6-31g**
  C46       1.949  1.900  0.770   12.000    Y    Y      Y    6-31g**
  C47       1.949  1.900  0.770   12.000    Y    Y      Y    6-31g**
  C48       1.949  1.900  0.770   12.000    Y    Y      Y    6-31g**
  C49       1.949  1.900  0.770   12.000    Y    Y      Y    6-31g**
  H50       1.597  1.150  0.320    1.008    Y    Y      Y    6-31g**
  H51       1.597  1.150  0.320    1.008    Y    Y      Y    6-31g**
  H52       1.597  1.150  0.320    1.008    Y    Y      Y    6-31g**
  H53       1.597  1.150  0.320    1.008    Y    Y      Y    6-31g**
  H54       1.597  1.150  0.320    1.008    Y    Y      Y    6-31g**
  C55       1.949  1.900  0.770   12.000    Y    Y      Y    6-31g**
  C56       1.949  1.900  0.770   12.000    Y    Y      Y    6-31g**
  C57       1.949  1.900  0.770   12.000    Y    Y      Y    6-31g**
  C58       1.949  1.900  0.770   12.000    Y    Y      Y    6-31g**
  C59       1.949  1.900  0.770   12.000    Y    Y      Y    6-31g**
  C60       1.949  1.900  0.770   12.000    Y    Y      Y    6-31g**
  H61       1.597  1.150  0.320    1.008    Y    Y      Y    6-31g**
  H62       1.597  1.150  0.320    1.008    Y    Y      Y    6-31g**
  H63       1.597  1.150  0.320    1.008    Y    Y      Y    6-31g**
  H64       1.597  1.150  0.320    1.008    Y    Y      Y    6-31g**
  H65       1.597  1.150  0.320    1.008    Y    Y      Y    6-31g**
  C66       1.949  1.900  0.770   12.000    Y    Y      Y    6-31g**
  C67       1.949  1.900  0.770   12.000    Y    Y      Y    6-31g**
  C68       1.949  1.900  0.770   12.000    Y    Y      Y    6-31g**
  C69       1.949  1.900  0.770   12.000    Y    Y      Y    6-31g**
  C70       1.949  1.900  0.770   12.000    Y    Y      Y    6-31g**
  C71       1.949  1.900  0.770   12.000    Y    Y      Y    6-31g**
  H72       1.597  1.150  0.320    1.008    Y    Y      Y    6-31g**
  H73       1.597  1.150  0.320    1.008    Y    Y      Y    6-31g**
  H74       1.597  1.150  0.320    1.008    Y    Y      Y    6-31g**
  H75       1.597  1.150  0.320    1.008    Y    Y      Y    6-31g**
  H76       1.597  1.150  0.320    1.008    Y    Y      Y    6-31g**
  C77       1.949  1.900  0.770   12.000    Y    Y      Y    6-31g**
  C78       1.949  1.900  0.770   12.000    Y    Y      Y    6-31g**
  C79       1.949  1.900  0.770   12.000    Y    Y      Y    6-31g**
  C80       1.949  1.900  0.770   12.000    Y    Y      Y    6-31g**
  C81       1.949  1.900  0.770   12.000    Y    Y      Y    6-31g**
  C82       1.949  1.900  0.770   12.000    Y    Y      Y    6-31g**
  H83       1.597  1.150  0.320    1.008    Y    Y      Y    6-31g**
  H84       1.597  1.150  0.320    1.008    Y    Y      Y    6-31g**
  H85       1.597  1.150  0.320    1.008    Y    Y      Y    6-31g**
  H86       1.597  1.150  0.320    1.008    Y    Y      Y    6-31g**
  H87       1.597  1.150  0.320    1.008    Y    Y      Y    6-31g**
  C88       1.949  1.900  0.770   12.000    Y    Y      Y    6-31g**
  C89       1.949  1.900  0.770   12.000    Y    Y      Y    6-31g**
  C90       1.949  1.900  0.770   12.000    Y    Y      Y    6-31g**
  C91       1.949  1.900  0.770   12.000    Y    Y      Y    6-31g**
  C92       1.949  1.900  0.770   12.000    Y    Y      Y    6-31g**
  C93       1.949  1.900  0.770   12.000    Y    Y      Y    6-31g**
  H94       1.597  1.150  0.320    1.008    Y    Y      Y    6-31g**
  H95       1.597  1.150  0.320    1.008    Y    Y      Y    6-31g**
  H96       1.597  1.150  0.320    1.008    Y    Y      Y    6-31g**
  H97       1.597  1.150  0.320    1.008    Y    Y      Y    6-31g**
  H98       1.597  1.150  0.320    1.008    Y    Y      Y    6-31g**
  O99       1.702  1.600  0.730   15.995    Y    Y      Y    6-31g**
  O100      1.702  1.600  0.730   15.995    Y    Y      Y    6-31g**
  P101      2.147  2.074  1.060   30.974    Y    Y      Y    6-31g**
  O102      1.702  1.600  0.730   15.995    Y    Y      Y    6-31g**
  N103      1.831  1.600  0.750   14.003    Y    Y      Y    6-31g**
  H104      1.597  1.150  0.320    1.008    Y    Y      Y    6-31g**
  C105      1.949  1.900  0.770   12.000    Y    Y      Y    6-31g**
  C106      1.949  1.900  0.770   12.000    Y    Y      Y    6-31g**
  C107      1.949  1.900  0.770   12.000    Y    Y      Y    6-31g**
  C108      1.949  1.900  0.770   12.000    Y    Y      Y    6-31g**
  C109      1.949  1.900  0.770   12.000    Y    Y      Y    6-31g**
  C110      1.949  1.900  0.770   12.000    Y    Y      Y    6-31g**
  C111      1.949  1.900  0.770   12.000    Y    Y      Y    6-31g**
  H112      1.597  1.150  0.320    1.008    Y    Y      Y    6-31g**
  H113      1.597  1.150  0.320    1.008    Y    Y      Y    6-31g**
  H114      1.597  1.150  0.320    1.008    Y    Y      Y    6-31g**
  H115      1.597  1.150  0.320    1.008    Y    Y      Y    6-31g**
  H116      1.597  1.150  0.320    1.008    Y    Y      Y    6-31g**
  H117      1.597  1.150  0.320    1.008    Y    Y      Y    6-31g**
  N118      1.831  1.600  0.750   14.003    Y    Y      Y    6-31g**
  S119      2.070  1.900  1.020   31.972    Y    Y      Y    6-31g**
  O120      1.702  1.600  0.730   15.995    Y    Y      Y    6-31g**
  O121      1.702  1.600  0.730   15.995    Y    Y      Y    6-31g**
  C122      1.949  1.900  0.770   12.000    Y    Y      Y    6-31g**
  F123      1.736  1.682  0.720   18.998    Y    Y      Y    6-31g**
  F124      1.736  1.682  0.720   18.998    Y    Y      Y    6-31g**
  F125      1.736  1.682  0.720   18.998    Y    Y      Y    6-31g**
  C126      1.949  1.900  0.770   12.000    Y    Y      Y    6-31g**
  C127      1.949  1.900  0.770   12.000    Y    Y      Y    6-31g**
  C128      1.949  1.900  0.770   12.000    Y    Y      Y    6-31g**
  C129      1.949  1.900  0.770   12.000    Y    Y      Y    6-31g**
  N130      1.831  1.600  0.750   14.003    Y    Y      Y    6-31g**
  H131      1.597  1.150  0.320    1.008    Y    Y      Y    6-31g**
  H132      1.597  1.150  0.320    1.008    Y    Y      Y    6-31g**
  H133      1.597  1.150  0.320    1.008    Y    Y      Y    6-31g**
  H134      1.597  1.150  0.320    1.008    Y    Y      Y    6-31g**
  H135      1.597  1.150  0.320    1.008    Y    Y      Y    6-31g**
  S136      2.070  1.900  1.020   31.972    Y    Y      Y    6-31g**
  O137      1.702  1.600  0.730   15.995    Y    Y      Y    6-31g**
  O138      1.702  1.600  0.730   15.995    Y    Y      Y    6-31g**
  C139      1.949  1.900  0.770   12.000    Y    Y      Y    6-31g**
  C140      1.949  1.900  0.770   12.000    Y    Y      Y    6-31g**
  N141      1.831  1.600  0.750   14.003    Y    Y      Y    6-31g**
  C142      1.949  1.900  0.770   12.000    Y    Y      Y    6-31g**
  C143      1.949  1.900  0.770   12.000    Y    Y      Y    6-31g**
  C144      1.949  1.900  0.770   12.000    Y    Y      Y    6-31g**
  H145      1.597  1.150  0.320    1.008    Y    Y      Y    6-31g**
  H146      1.597  1.150  0.320    1.008    Y    Y      Y    6-31g**
  H147      1.597  1.150  0.320    1.008    Y    Y      Y    6-31g**
  H148      1.597  1.150  0.320    1.008    Y    Y      Y    6-31g**
  
  Peak memory usage:    768 Mb
  
  end of program pre
   
 Time(pre)  user:        1.0  user+sys:        1.0  wallclock:        5.7
  
  start of program onee
  
  smallest eigenvalue of S:    2.147E-04
  number of canonical orbitals.....         1673
  Peak memory usage:    900 Mb
  
  end of program onee
   
 Time(onee)  user:       17.6  user+sys:       17.6  wallclock:       75.5
  
  start of program hfig
  
  initial wavefunction generated automatically from atomic wavefunctions
 
  Irreducible     Total no   No of occupied orbitals 
  representation  orbitals   Shell_1  Shell_2    ...
  No Symm         1673        340
  ------------------------
  Orbital occupation/shell    1.000
 
  Peak memory usage:    833 Mb
  
  end of program hfig
   
 Time(hfig)  user:       27.8  user+sys:       27.8  wallclock:      115.0
  
  start of program probe
  
  Peak memory usage:    826 Mb
  
  end of program probe
   
 Time(probe)  user:       20.2  user+sys:       20.2  wallclock:       90.8
  
  start of program grid
  
   grid     grid set  grid #  grid sym
  ------    --------  ------  --------
  coarse        0        0        1
  medium        2        1        1
  fine          0        0        1
  ultrafine     4        2        1
  charge       -1        3        1
  gradient      4        2        1
  density       0        0        1
  DFT-fine    -13        4        1
  DFT-med.    -13        4        1
  DFT-grad    -13        4        1
  DFT-der2      0        0        1
  DFT-cphf      0        0        1
  LMP2-enrg     4        2        1
  LMP2-grad     2        1        1
  DFT-cphf2     0        0        1
  PBF-dens      0        0        1
  plotting      0        0        1
  Rel-grad    -17        0        1
  
  number of gridpoints: 
     atom        C1       C2       C3       C4       H5       C6       C7
  grid # 1      100       93      101       97      110       93      101
  grid # 2      360      337      357      359      427      331      359
  grid # 3       13       30       12       16      195        7       11
  grid # 4    48124    48124    48124    48124    48426    48124    48124
   
  number of gridpoints: 
     atom        C8       C9      H10      C11      C12      C13      C14
  grid # 1       97      100      111      102      102       97       94
  grid # 2      358      353      431      359      367      339      338
  grid # 3       16        6      187       29       46       48       48
  grid # 4    48124    48124    48426    48124    48124    48124    48124
   
  number of gridpoints: 
     atom       C15      C16      H17      H18      H19      H20      C21
  grid # 1       95       97      118      118      118      112      101
  grid # 2      338      338      443      450      449      431      364
  grid # 3       42       32      361      419      409      217       26
  grid # 4    48124    48124    48426    48426    48426    48426    48124
   
  number of gridpoints: 
     atom       C22      C23      C24      C25      C26      H27      H28
  grid # 1      100       96       93       94       95      112      118
  grid # 2      357      336      336      335      336      435      452
  grid # 3        6       22       34       41       36      251      419
  grid # 4    48124    48124    48124    48124    48124    48426    48426
   
  number of gridpoints: 
     atom       H29      H30     Si31     Si32      C33      C34      C35
  grid # 1      118      118      477      473       93       93       92
  grid # 2      453      445      477      473      332      333      334
  grid # 3      422      349        6        7       30       31       18
  grid # 4    48426    48426    38542    38542    48124    48124    48124
   
  number of gridpoints: 
     atom       C36      C37      C38      H39      H40      H41      H42
  grid # 1      100       94       92      116      113      110      112
  grid # 2      357      329      331      448      435      422      428
  grid # 3       11       10       19      370      243      170      231
  grid # 4    48124    48124    48124    48426    48426    48426    48426
   
  number of gridpoints: 
     atom       H43      C44      C45      C46      C47      C48      C49
  grid # 1      116       94       94       92      100       97       93
  grid # 2      447      336      335      335      359      335      337
  grid # 3      345       42       41       24       21       33       39
  grid # 4    48426    48124    48124    48124    48124    48124    48124
   
  number of gridpoints: 
     atom       H50      H51      H52      H53      H54      C55      C56
  grid # 1      118      118      111      112      118       93       93
  grid # 2      453      452      433      430      452      332      332
  grid # 3      424      419      237      224      423       29       28
  grid # 4    48426    48426    48426    48426    48426    48124    48124
   
  number of gridpoints: 
     atom       C57      C58      C59      C60      H61      H62      H63
  grid # 1       92      101       97       94      112      117      111
  grid # 2      335      359      338      334      433      450      426
  grid # 3       19       22       30       31      232      369      182
  grid # 4    48124    48124    48124    48124    48426    48426    48426
   
  number of gridpoints: 
     atom       H64      H65      C66      C67      C68      C69      C70
  grid # 1      108      112       93       94       92      100       94
  grid # 2      419      431      335      335      337      358      330
  grid # 3      136      232       41       41       25       15        9
  grid # 4    48426    48426    48124    48124    48124    48124    48124
   
  number of gridpoints: 
     atom       C71      H72      H73      H74      H75      H76      C77
  grid # 1       92      118      118      111      105      112       93
  grid # 2      333      453      453      436      406      432      334
  grid # 3       23      421      420      234       53      207       34
  grid # 4    48124    48426    48426    48426    48426    48426    48124
   
  number of gridpoints: 
     atom       C78      C79      C80      C81      C82      H83      H84
  grid # 1       93       92      100       96       93      115      117
  grid # 2      334      334      355      336      334      444      450
  grid # 3       36       22       12       19       30      337      368
  grid # 4    48124    48124    48124    48124    48124    48426    48426
   
  number of gridpoints: 
     atom       H85      H86      H87      C88      C89      C90      C91
  grid # 1      112      109      113       94       94       92      101
  grid # 2      435      425      435      336      335      335      358
  grid # 3      254      203      271       48       41       21       13
  grid # 4    48426    48426    48426    48124    48124    48124    48124
   
  number of gridpoints: 
     atom       C92      C93      H94      H95      H96      H97      H98
  grid # 1       96       94      118      118      112      111      118
  grid # 2      340      336      453      453      438      428      453
  grid # 3       30       45      424      419      268      193      417
  grid # 4    48124    48124    48426    48426    48426    48426    48426
   
  number of gridpoints: 
     atom       O99     O100     P101     O102     N103     H104     C105
  grid # 1      108      112      445      115       98       98       91
  grid # 2      430      437      445      450      352      393      322
  grid # 3       32       38       10       42        9       47        6
  grid # 4    47716    47716    38640    47716    47928    48426    48124
   
  number of gridpoints: 
     atom      C106     C107     C108     C109     C110     C111     H112
  grid # 1       97       95       95       97       95       96      118
  grid # 2      332      332      330      351      332      332      451
  grid # 3       40       29       13        9       22       35      414
  grid # 4    48124    48124    48124    48124    48124    48124    48426
   
  number of gridpoints: 
     atom      H113     H114     H115     H116     H117     N118     S119
  grid # 1      110      107      108      118      100      108      430
  grid # 2      430      412      424      450      396      399      430
  grid # 3      197       93      170      408       46        9        7
  grid # 4    48426    48426    48426    48426    48426    47928    48492
   
  number of gridpoints: 
     atom      O120     O121     C122     F123     F124     F125     C126
  grid # 1      119      117       90      532      522      516       91
  grid # 2      489      461      319      532      522      516      319
  grid # 3      147       74        7      213      122       70        7
  grid # 4    47716    47716    48124    47062    47062    47062    48124
   
  number of gridpoints: 
     atom      C127     C128     C129     N130     H131     H132     H133
  grid # 1       93       94       94       97      103      112      117
  grid # 2      330      330      331      341      406      442      460
  grid # 3       15       25       20       13       42      270      445
  grid # 4    48124    48124    48124    47928    48426    48426    48426
   
  number of gridpoints: 
     atom      H134     H135     S136     O137     O138     C139     C140
  grid # 1      112      104      442      120      122       96       96
  grid # 2      442      397      442      489      489      333      338
  grid # 3      275       65       12      185      182       41       34
  grid # 4    48426    48426    48492    47716    47716    48124    48124
   
  number of gridpoints: 
     atom      N141     C142     C143     C144     H145     H146     H147
  grid # 1      111       98       96       96      118      113      114
  grid # 2      416      356      330      332      451      441      438
  grid # 3       81       29       36       42      415      298      261
  grid # 4    47928    48124    48124    48124    48426    48426    48426
   
  number of gridpoints: 
     atom      H148    total
  grid # 1      118    18363
  grid # 2      453    57829
  grid # 3      423    18997
  grid # 4    48426  7104526
   
  Peak memory usage:    795 Mb
  
  end of program grid
   
 Time(grid)  user:     1151.2  user+sys:     1151.2  wallclock:     4838.8
  
  start of program rwr
  
  Peak memory usage:    814 Mb
  
  end of program rwr
   
 Time(rwr)  user:       75.6  user+sys:       75.6  wallclock:      338.1
  
  start of program scf
  
 number of electrons..........        680
 number of alpha electrons....        340
 number of beta electrons.....        340
 number of orbitals, total....       1673
 number of doubly-occ'd orbs..        340
 number of open shell orbs....          0
 number of occupied orbitals..        340
 number of virtual orbitals...       1333
 number of hamiltonians.......          1
 number of shells.............          1
 SCF type: DFT=M06-2X
 Energy computed with NOPS off.
  
       i  u  d  i  g                   
       t  p  i  c  r                                 RMS    maximum
       e  d  i  u  i                       energy  density   DIIS  
       r  t  s  t  d       total energy    change  change    error 
  
etot    1  N  N  1  U   -5562.77507231602           3.5E-03  9.7E-02
etot    2  N  Y  1  U   -5542.61126758151 -2.0E+01  1.4E-02  1.0E-01
etot    3  N  Y  1  U   -5374.72696198113 -1.7E+02  1.4E-02  2.6E-01
etot    4  N  Y  1  U   -5565.54372009250  1.9E+02  3.8E-03  8.9E-02
etot    5  N  Y  1  U   -5566.26902015424  7.3E-01  3.2E-03  4.8E-02
etot    6  N  Y  1  U   -5563.16935383306 -3.1E+00  1.6E-03  8.8E-02
etot    7  N  Y  1  U   -5575.21585443479  1.2E+01  5.4E-04  3.9E-02
etot    8  N  Y  1  U   -5575.46106709370  2.5E-01  2.1E-04  1.4E-02
etot    9  N  Y  1  U   -5575.54204631852  8.1E-02  7.3E-05  2.8E-03
etot   10  N  Y  1  U   -5575.54890203925  6.9E-03  4.1E-05  1.4E-03
etot   11  N  Y  1  U   -5575.55148856766  2.6E-03  1.8E-05  6.0E-04
etot   12  N  Y  1  U   -5575.55190046767  4.1E-04  9.0E-06  2.5E-04
etot   13  N  Y  1  U   -5575.55198856044  8.8E-05  3.2E-06  1.2E-04
etot   14  N  N  1  U   -5575.55200814379  2.0E-05  0.0E+00  0.0E+00
  
  
 Energy components, in hartrees:
   (A)  Nuclear repulsion............   20895.50529686423
   (E)  Total one-electron terms.....  -49318.62862067824
   (F)    Electron-nuclear...........  -54854.64420021530
   (H)    Kinetic....................    5536.01557953707
   (I)  Total two-electron terms.....   22847.57131567022
   (J)    Coulomb....................   23498.82852725418
   (K)    Exchange+Correlation.......    -651.25721158396
   (L)  Electronic energy............  -26471.05730500802  (E+I)
   (M)  -V/T.........................       2.00714167582  (-(A+F+I)/H)
   (N)  Total energy.................   -5575.55200814379  (A+L)
   (O)  Gas phase energy.............   -5575.55200814379
  
 SCFE: SCF energy: DFT(m06-2x)     -5575.55200814379 hartrees   iterations:  14
  
 
 HOMO energy:    -0.25048
 LUMO energy:    -0.06294
 
  Orbital energies (hartrees): 
   -90.17770   -90.15246   -78.21051   -67.00748   -67.00570   -25.29142
   -25.28906   -25.28555   -19.69016   -19.68804   -19.65427   -19.65355
   -19.62848   -19.62028   -19.60743   -14.81984   -14.81831   -14.79621
   -14.74223   -10.80429   -10.66051   -10.63826   -10.62589   -10.61669
   -10.61346   -10.61309   -10.59852   -10.59592   -10.59386   -10.58914
   -10.58006   -10.57140   -10.56943   -10.56739   -10.56629   -10.56588
   -10.56516   -10.56371   -10.56262   -10.56158   -10.55999   -10.55961
   -10.55922   -10.55700   -10.55634   -10.55418   -10.55177   -10.55148
   -10.55053   -10.55049   -10.55026   -10.54972   -10.54913   -10.54905
   -10.54871   -10.54835   -10.54808   -10.54790   -10.54728   -10.54691
   -10.54684   -10.54665   -10.54654   -10.54608   -10.54591   -10.54589
   -10.54587   -10.54580   -10.54546   -10.54541   -10.54525   -10.54524
   -10.54467   -10.54412   -10.54408   -10.54405   -10.54300   -10.54240
   -10.54125   -10.53843   -10.53718   -10.53623   -10.53508   -10.53357
   -10.53354   -10.53239   -10.53231   -10.53171   -10.53102   -10.52925
   -10.52794   -10.52112    -8.48800    -8.46096    -6.99008    -6.41029
    -6.40903    -6.40858    -6.38277    -6.38243    -6.38237    -5.53898
    -5.53663    -5.10863    -5.10757    -5.10589    -3.84867    -3.84855
    -3.84822    -3.84644    -3.84615    -3.84589    -1.45483    -1.36465
    -1.36251    -1.24761    -1.23174    -1.21321    -1.18752    -1.13310
    -1.10898    -1.09995    -1.08978    -1.08968    -1.06464    -0.98844
    -0.97712    -0.97085    -0.96260    -0.94351    -0.94333    -0.93991
    -0.93853    -0.93697    -0.93291    -0.92809    -0.91767    -0.90796
    -0.90584    -0.89111    -0.88710    -0.87943    -0.85081    -0.85028
    -0.84383    -0.84149    -0.83934    -0.83735    -0.83411    -0.83396
    -0.83273    -0.83235    -0.82938    -0.82549    -0.82526    -0.82385
    -0.82374    -0.82314    -0.81998    -0.81975    -0.81595    -0.81440
    -0.79799    -0.75986    -0.75624    -0.74604    -0.72909    -0.71743
    -0.70530    -0.70217    -0.70097    -0.69502    -0.68738    -0.68409
    -0.68169    -0.67984    -0.67867    -0.67649    -0.67513    -0.67232
    -0.67164    -0.67113    -0.67014    -0.66909    -0.66648    -0.66374
    -0.66210    -0.66139    -0.65795    -0.65755    -0.65679    -0.65187
    -0.64796    -0.64399    -0.63657    -0.62398    -0.61311    -0.61139
    -0.60672    -0.60148    -0.59722    -0.58535    -0.58247    -0.58007
    -0.57895    -0.57873    -0.57666    -0.57306    -0.57267    -0.56942
    -0.56849    -0.56227    -0.55796    -0.55604    -0.55115    -0.54852
    -0.54769    -0.54375    -0.53864    -0.53704    -0.53457    -0.53241
    -0.52693    -0.52546    -0.52466    -0.52120    -0.51896    -0.51802
    -0.51728    -0.51684    -0.51397    -0.51247    -0.51021    -0.50838
    -0.50700    -0.50454    -0.50316    -0.50149    -0.50060    -0.50009
    -0.49921    -0.49828    -0.49800    -0.49742    -0.49635    -0.49520
    -0.49281    -0.49199    -0.49000    -0.48939    -0.48778    -0.48548
    -0.48212    -0.48174    -0.47999    -0.47957    -0.47818    -0.47661
    -0.47518    -0.46938    -0.46777    -0.46770    -0.46669    -0.46226
    -0.46072    -0.45299    -0.45081    -0.44901    -0.44750    -0.44589
    -0.44286    -0.44002    -0.43724    -0.43607    -0.43019    -0.42864
    -0.42734    -0.42306    -0.42157    -0.42098    -0.41978    -0.41900
    -0.41710    -0.41607    -0.41133    -0.40865    -0.40621    -0.40337
    -0.40035    -0.39975    -0.39701    -0.39371    -0.39167    -0.39118
    -0.39039    -0.38968    -0.38937    -0.38657    -0.38463    -0.38409
    -0.38148    -0.37709    -0.37682    -0.37351    -0.37267    -0.36940
    -0.36613    -0.35423    -0.35387    -0.34918    -0.34905    -0.34615
    -0.34475    -0.34186    -0.34055    -0.33991    -0.33729    -0.33485
    -0.33129    -0.32136    -0.31775    -0.31304    -0.30894    -0.30419
    -0.30056    -0.29984    -0.29902    -0.29666    -0.29525    -0.29447
    -0.29389    -0.29298    -0.28678    -0.28590    -0.28296    -0.28159
    -0.27876    -0.27743    -0.26826    -0.25048    -0.06294    -0.02733
    -0.01634    -0.00886     0.00095     0.01344     0.02096     0.02138
     0.02186     0.02383
 
  Peak memory usage:   1028 Mb
  
  end of program scf
   
 Time(scf)  user:    38598.8  user+sys:    38598.8  wallclock:   164413.9
  
  start of program ch
  
  gridpoints used for charge fit        16405
    out of a possible maximum of        18997
  
   Electrostatic potential fitting constrained to reproduce
     total charge:                yes
     dipole moment:               no 
     traceless quadrupole moment: no 
     traceless octapole moment:   no 
  
  Atomic charges from electrostatic potential: 
   
 Atom       C1           C2           C3           C4           H5      
 Charge   -0.14754     -0.44794      0.22618     -0.04129      0.19785
   
 Atom       C6           C7           C8           C9           H10     
 Charge   -0.27667     -0.03816      0.11924      0.05287      0.17916
   
 Atom       C11          C12          C13          C14          C15     
 Charge    0.10472      0.24065     -0.23200     -0.12763     -0.12466
   
 Atom       C16          H17          H18          H19          H20     
 Charge   -0.19217      0.14798      0.13187      0.13790      0.10815
   
 Atom       C21          C22          C23          C24          C25     
 Charge    0.11161      0.13108     -0.14103     -0.18470     -0.09347
   
 Atom       C26          H27          H28          H29          H30     
 Charge   -0.24009      0.13060      0.14904      0.12856      0.15052
   
 Atom       Si31         Si32         C33          C34          C35     
 Charge   -0.22761     -0.14246     -0.13153     -0.14845     -0.04710
   
 Atom       C36          C37          C38          H39          H40     
 Charge    0.05872     -0.09210     -0.15710      0.12600      0.12625
   
 Atom       H41          H42          H43          C44          C45     
 Charge    0.08376      0.11243      0.12686     -0.16975     -0.13541
   
 Atom       C46          C47          C48          C49          H50     
 Charge   -0.18287      0.26908     -0.29010     -0.06309      0.13676
   
 Atom       H51          H52          H53          H54          C55     
 Charge    0.13504      0.10932      0.15564      0.12051     -0.13869
   
 Atom       C56          C57          C58          C59          C60     
 Charge   -0.11630     -0.13721      0.04542     -0.13692     -0.08238
   
 Atom       H61          H62          H63          H64          H65     
 Charge    0.10383      0.12358      0.13207      0.09774      0.09655
   
 Atom       C66          C67          C68          C69          C70     
 Charge   -0.16753     -0.16279     -0.14631      0.13392     -0.10011
   
 Atom       C71          H72          H73          H74          H75     
 Charge   -0.07832      0.14144      0.13843      0.11485      0.05170
   
 Atom       H76          C77          C78          C79          C80     
 Charge    0.09123     -0.17670     -0.04644     -0.29131      0.17808
   
 Atom       C81          C82          H83          H84          H85     
 Charge   -0.13238     -0.11933      0.13002      0.11302      0.18169
   
 Atom       H86          H87          C88          C89          C90     
 Charge    0.08084      0.11732     -0.12530     -0.15876     -0.11569
   
 Atom       C91          C92          C93          H94          H95     
 Charge    0.11292     -0.16814     -0.13689      0.12991      0.13674
   
 Atom       H96          H97          H98          O99          O100    
 Charge    0.10716      0.12976      0.13039     -0.12190     -0.23716
   
 Atom       P101         O102         N103         H104         C105    
 Charge    0.96227     -0.63793     -0.26012      0.32866     -0.26975
   
 Atom       C106         C107         C108         C109         C110    
 Charge   -0.10018     -0.15659     -0.22353      0.49002     -0.27039
   
 Atom       C111         H112         H113         H114         H115    
 Charge   -0.15429      0.13563      0.13310      0.15620      0.19748
   
 Atom       H116         H117         N118         S119         O120    
 Charge    0.15131      0.17884     -0.45698      0.55382     -0.40416
   
 Atom       O121         C122         F123         F124         F125    
 Charge   -0.45280      0.43992     -0.14600     -0.11783     -0.11654
   
 Atom       C126         C127         C128         C129         N130    
 Charge    0.19353     -0.16193     -0.28687     -0.00876     -0.18783
   
 Atom       H131         H132         H133         H134         H135    
 Charge   -0.00483      0.18700      0.19093      0.15333      0.30518
   
 Atom       S136         O137         O138         C139         C140    
 Charge    0.55355     -0.40678     -0.40296     -0.46417      0.44345
   
 Atom       N141         C142         C143         C144         H145    
 Charge   -0.63292      0.61424     -0.46557      0.18710      0.20522
   
 Atom       H146         H147         H148    
 Charge    0.04804      0.21385      0.11155
  
  sum of atomic charges:    -0.000000
   
 RMS Error   9.70E-04 hartrees
 
  Peak memory usage:    816 Mb
  
  end of program ch
   
 Time(ch)  user:       19.6  user+sys:       19.6  wallclock:       68.6
  
  start of program post
  
  Writing input files for PBF
  Peak memory usage:    759 Mb
  
  end of program post
   
 Time(post)  user:        0.9  user+sys:        0.9  wallclock:        3.2

  start of program pbf

Pbf Version 4.10

Molecular surface area:      826.41339   [A2]
Reaction field energy:       -17.61806   [kT]
  Peak memory usage: 721 Mb

  end of program pbf

 Time(pbf)  user:       12.6  user+sys:       12.8  wallclock:       53.3
  
  start of program solv
  
   number of surface charges from PBF   13518
   sum of surface charges     -0.00035
   
  nuclear repulsion energy.......   20895.505296864 hartrees
  Peak memory usage:    894 Mb
  
  end of program solv
   
 Time(solv)  user:       39.0  user+sys:       39.0  wallclock:      136.7
  
  start of program scf
  
 Energy computed with NOPS off.
  
       i  u  d  i  g                   
       t  p  i  c  r                                 RMS    maximum
       e  d  i  u  i                       energy  density   DIIS  
       r  t  s  t  d       total energy    change  change    error 
  
etot    1  N  N  1  U   -5575.58880254736           5.1E-05  8.6E-04
etot    2  N  Y  1  U   -5575.58958900802  7.9E-04  1.6E-05  6.5E-04
etot    3  N  Y  1  U   -5575.58981183962  2.2E-04  5.4E-06  3.5E-04
etot    4  N  Y  1  U   -5575.58986692265  5.5E-05  2.3E-06  8.7E-05
etot    5  N  N  1  U   -5575.58987318287  6.3E-06  0.0E+00  0.0E+00
  
  
 Energy components, in hartrees:
   (A)  Total zero-electron terms....   20898.52158363603
   (B)    Nuclear-nuclear............   20895.50529686423
   (C)    Nuclear-solvent............       3.01628677180
   (E)  Total one-electron terms.....  -49323.27217625506
   (F)    Electron-nuclear...........  -54856.28355594918
   (G)    Electron-solvent...........      -3.05522019263
   (H)    Kinetic....................    5536.06659988676
   (I)  Total two-electron terms.....   22849.16071943615
   (J)    Coulomb....................   23500.43798643981
   (K)    Exchange+Correlation.......    -651.27726700366
   (L)  Electronic energy............  -26474.11145681890  (E+I)
   (N)  Total quantum mech. energy...   -5575.58987318287  (A+L)
   (O)  Gas phase energy.............   -5575.55200814379
   (P)  Solution phase energy........   -5575.57040647246  (Q+R+S)
   (Q)    Total solute energy........   -5575.55093976204  (N-C-G)
   (R)    Total solvent energy.......      -0.01946671042  (C/2+G/2)
   (S)    Solute cavity energy.......       0.00000000000
   (U)  Reorganization energy........       0.00106838175  (Q-O)
   (V)  Solvation energy.............      -0.01839832867  (P-O)
  
 SCFE:  Solution phase energy: DFT(m06-2x)      -5575.57040647246 hartrees
        SCF iterations:   5
  
 
 HOMO energy:    -0.25360
 LUMO energy:    -0.06373
 
  Orbital energies (hartrees): 
   -90.18244   -90.15649   -78.21341   -67.01030   -67.00893   -25.29515
   -25.29317   -25.29003   -19.69345   -19.69088   -19.65980   -19.65857
   -19.63261   -19.62592   -19.60987   -14.82164   -14.81953   -14.79440
   -14.74572   -10.80813   -10.66226   -10.63699   -10.62918   -10.61972
   -10.61217   -10.60905   -10.59492   -10.59233   -10.59141   -10.58313
   -10.58114   -10.57479   -10.57205   -10.56748   -10.56691   -10.56608
   -10.56593   -10.56555   -10.56444   -10.56157   -10.56023   -10.55979
   -10.55923   -10.55916   -10.55797   -10.55683   -10.55369   -10.55333
   -10.55309   -10.55256   -10.55132   -10.55104   -10.55098   -10.55075
   -10.55049   -10.55025   -10.55017   -10.54974   -10.54968   -10.54952
   -10.54922   -10.54894   -10.54876   -10.54867   -10.54795   -10.54793
   -10.54779   -10.54769   -10.54765   -10.54761   -10.54702   -10.54696
   -10.54652   -10.54604   -10.54581   -10.54552   -10.54544   -10.54512
   -10.54441   -10.54129   -10.54063   -10.53931   -10.53864   -10.53782
   -10.53693   -10.53668   -10.53551   -10.53435   -10.53400   -10.53236
   -10.53011   -10.52516    -8.49264    -8.46504    -6.99299    -6.41491
    -6.41375    -6.41316    -6.38686    -6.38651    -6.38645    -5.54180
    -5.53986    -5.11154    -5.11048    -5.10879    -3.85150    -3.85136
    -3.85104    -3.84966    -3.84937    -3.84913    -1.45877    -1.36835
    -1.36677    -1.25267    -1.23493    -1.21764    -1.19063    -1.13867
    -1.10918    -1.10457    -1.09206    -1.08782    -1.06726    -0.99204
    -0.98017    -0.97099    -0.96547    -0.94640    -0.94572    -0.94247
    -0.94134    -0.93933    -0.93221    -0.92809    -0.92037    -0.91067
    -0.90451    -0.89073    -0.89001    -0.87876    -0.85299    -0.85061
    -0.84665    -0.84414    -0.83991    -0.83917    -0.83698    -0.83638
    -0.83506    -0.83447    -0.83179    -0.82866    -0.82763    -0.82662
    -0.82618    -0.82581    -0.82356    -0.82254    -0.81969    -0.81483
    -0.80068    -0.76321    -0.75519    -0.74180    -0.73224    -0.71732
    -0.70804    -0.70466    -0.70066    -0.69759    -0.68995    -0.68523
    -0.68416    -0.68355    -0.68067    -0.67890    -0.67738    -0.67461
    -0.67345    -0.67282    -0.67163    -0.67126    -0.66876    -0.66552
    -0.66364    -0.66338    -0.66097    -0.65953    -0.65638    -0.65491
    -0.65041    -0.64430    -0.63853    -0.62656    -0.61430    -0.61074
    -0.60906    -0.60377    -0.59958    -0.58745    -0.58200    -0.58108
    -0.58102    -0.58018    -0.57880    -0.57472    -0.57423    -0.57244
    -0.56777    -0.56564    -0.56027    -0.55977    -0.55374    -0.55152
    -0.55021    -0.54415    -0.54003    -0.53803    -0.53503    -0.53401
    -0.52985    -0.52842    -0.52653    -0.52268    -0.52176    -0.52037
    -0.51919    -0.51872    -0.51609    -0.51459    -0.51236    -0.50958
    -0.50872    -0.50686    -0.50405    -0.50346    -0.50275    -0.50224
    -0.50077    -0.50056    -0.49917    -0.49782    -0.49659    -0.49506
    -0.49412    -0.49221    -0.49129    -0.49015    -0.48939    -0.48881
    -0.48402    -0.48343    -0.48175    -0.48127    -0.48023    -0.47861
    -0.47737    -0.47215    -0.47048    -0.46664    -0.46486    -0.46293
    -0.46088    -0.45531    -0.45363    -0.45123    -0.44944    -0.44733
    -0.44533    -0.44302    -0.43979    -0.43768    -0.43266    -0.43233
    -0.43036    -0.42592    -0.42447    -0.42375    -0.42242    -0.42091
    -0.41941    -0.41882    -0.41481    -0.41140    -0.40849    -0.40684
    -0.40390    -0.40211    -0.39909    -0.39571    -0.39357    -0.39294
    -0.39238    -0.39160    -0.39113    -0.38908    -0.38855    -0.38680
    -0.38442    -0.38043    -0.37980    -0.37635    -0.37539    -0.37183
    -0.36461    -0.35809    -0.35694    -0.35233    -0.34940    -0.34853
    -0.34474    -0.34325    -0.34257    -0.34198    -0.34004    -0.33768
    -0.33160    -0.32457    -0.31856    -0.31669    -0.30941    -0.30746
    -0.30350    -0.30321    -0.30261    -0.29937    -0.29785    -0.29761
    -0.29657    -0.29593    -0.29004    -0.28881    -0.28585    -0.28422
    -0.28194    -0.28072    -0.27137    -0.25360    -0.06373    -0.02491
    -0.01948    -0.00494    -0.00210     0.01043     0.01792     0.01852
     0.02051     0.02101
 
  Peak memory usage:   1029 Mb
  
  end of program scf
   
 Time(scf)  user:    11209.3  user+sys:    11209.3  wallclock:    41925.3
  
  start of program sole
  
    SCRF                   solvation energy
  iteration          Hartrees            kcal/mol
     0               0.0000000            0.0000
     1              -0.0183983          -11.5451
  
  solvation energy not yet converged... 
  
  Peak memory usage:    813 Mb
  
  end of program sole
   
 Time(sole)  user:        0.2  user+sys:        0.2  wallclock:        0.5
  
  start of program ch
  
  gridpoints used for charge fit        16405
    out of a possible maximum of        16405
  
   Electrostatic potential fitting constrained to reproduce
     total charge:                yes
     dipole moment:               no 
     traceless quadrupole moment: no 
     traceless octapole moment:   no 
  
  Atomic charges from electrostatic potential: 
   
 Atom       C1           C2           C3           C4           H5      
 Charge   -0.14721     -0.46684      0.25112     -0.06122      0.20662
   
 Atom       C6           C7           C8           C9           H10     
 Charge   -0.29335     -0.01707      0.10468      0.05624      0.18581
   
 Atom       C11          C12          C13          C14          C15     
 Charge    0.10378      0.24310     -0.24276     -0.13257     -0.13420
   
 Atom       C16          H17          H18          H19          H20     
 Charge   -0.19227      0.15567      0.14030      0.14706      0.10795
   
 Atom       C21          C22          C23          C24          C25     
 Charge    0.11487      0.13847     -0.14678     -0.19373     -0.10010
   
 Atom       C26          H27          H28          H29          H30     
 Charge   -0.24909      0.13417      0.15765      0.13671      0.15807
   
 Atom       Si31         Si32         C33          C34          C35     
 Charge   -0.25759     -0.17697     -0.13712     -0.15593     -0.05946
   
 Atom       C36          C37          C38          H39          H40     
 Charge    0.06884     -0.08975     -0.16713      0.13452      0.13338
   
 Atom       H41          H42          H43          C44          C45     
 Charge    0.08594      0.11532      0.13517     -0.17949     -0.14138
   
 Atom       C46          C47          C48          C49          H50     
 Charge   -0.18950      0.27732     -0.30252     -0.06652      0.14533
   
 Atom       H51          H52          H53          H54          C55     
 Charge    0.14324      0.11150      0.16206      0.12843     -0.15323
   
 Atom       C56          C57          C58          C59          C60     
 Charge   -0.11716     -0.14930      0.05429     -0.14586     -0.08134
   
 Atom       H61          H62          H63          H64          H65     
 Charge    0.11119      0.12947      0.13897      0.10023      0.09513
   
 Atom       C66          C67          C68          C69          C70     
 Charge   -0.17314     -0.17307     -0.15481      0.14842     -0.10678
   
 Atom       C71          H72          H73          H74          H75     
 Charge   -0.08315      0.14969      0.14674      0.12000      0.05845
   
 Atom       H76          C77          C78          C79          C80     
 Charge    0.09447     -0.18059     -0.05443     -0.30130      0.18791
   
 Atom       C81          C82          H83          H84          H85     
 Charge   -0.14029     -0.12499      0.13651      0.11963      0.18640
   
 Atom       H86          H87          C88          C89          C90     
 Charge    0.08239      0.12560     -0.13279     -0.16556     -0.12332
   
 Atom       C91          C92          C93          H94          H95     
 Charge    0.12278     -0.17160     -0.14604      0.13818      0.14507
   
 Atom       H96          H97          H98          O99          O100    
 Charge    0.11200      0.13158      0.13824     -0.10180     -0.22108
   
 Atom       P101         O102         N103         H104         C105    
 Charge    0.93907     -0.62457     -0.28083      0.33748     -0.21664
   
 Atom       C106         C107         C108         C109         C110    
 Charge   -0.10664     -0.16274     -0.22225      0.47929     -0.27921
   
 Atom       C111         H112         H113         H114         H115    
 Charge   -0.15473      0.14440      0.14016      0.15648      0.19932
   
 Atom       H116         H117         N118         S119         O120    
 Charge    0.15867      0.16127     -0.45141      0.55728     -0.41691
   
 Atom       O121         C122         F123         F124         F125    
 Charge   -0.45256      0.43582     -0.14731     -0.11684     -0.11159
   
 Atom       C126         C127         C128         C129         N130    
 Charge    0.21635     -0.17373     -0.28813     -0.00768     -0.20354
   
 Atom       H131         H132         H133         H134         H135    
 Charge   -0.02170      0.19156      0.19906      0.16308      0.30854
   
 Atom       S136         O137         O138         C139         C140    
 Charge    0.56417     -0.42420     -0.42107     -0.46826      0.45089
   
 Atom       N141         C142         C143         C144         H145    
 Charge   -0.65852      0.62202     -0.47068      0.19179      0.21526
   
 Atom       H146         H147         H148    
 Charge    0.05216      0.22041      0.12273
  
  sum of atomic charges:    -0.000000
   
 RMS Error   9.79E-04 hartrees
 
  Peak memory usage:    816 Mb
  
  end of program ch
   
 Time(ch)  user:       19.4  user+sys:       19.4  wallclock:       72.9
  
  start of program post
  
  Writing input files for PBF
  Peak memory usage:    759 Mb
  
  end of program post
   
 Time(post)  user:        0.9  user+sys:        0.9  wallclock:        4.1

  start of program pbf

Pbf Version 4.10

Molecular surface area:      826.41339   [A2]
Reaction field energy:       -20.10223   [kT]
  Peak memory usage: 721 Mb

  end of program pbf

 Time(pbf)  user:       13.8  user+sys:       14.1  wallclock:       48.2
  
  start of program solv
  
   number of surface charges from PBF   13518
   sum of surface charges     -0.00037
   
  nuclear repulsion energy.......   20895.505296864 hartrees
  Peak memory usage:    894 Mb
  
  end of program solv
   
 Time(solv)  user:       39.2  user+sys:       39.2  wallclock:      145.2
  
  start of program scf
  
 Energy computed with NOPS off.
  
       i  u  d  i  g                   
       t  p  i  c  r                                 RMS    maximum
       e  d  i  u  i                       energy  density   DIIS  
       r  t  s  t  d       total energy    change  change    error 
  
etot    1  N  N  1  U   -5575.59250352075           5.9E-06  1.1E-04
etot    2  N  N  1  U   -5575.59250453494  1.0E-06  0.0E+00  0.0E+00
  
  
 Energy components, in hartrees:
   (A)  Total zero-electron terms....   20898.82406190604
   (B)    Nuclear-nuclear............   20895.50529686423
   (C)    Nuclear-solvent............       3.31876504181
   (E)  Total one-electron terms.....  -49323.98486984223
   (F)    Electron-nuclear...........  -54856.69933882319
   (G)    Electron-solvent...........      -3.36063098875
   (H)    Kinetic....................    5536.07509996971
   (I)  Total two-electron terms.....   22849.56830340125
   (J)    Coulomb....................   23500.84718239101
   (K)    Exchange+Correlation.......    -651.27887898977
   (L)  Electronic energy............  -26474.41656644098  (E+I)
   (N)  Total quantum mech. energy...   -5575.59250453494  (A+L)
   (O)  Gas phase energy.............   -5575.55200814379
   (P)  Solution phase energy........   -5575.57157156147  (Q+R+S)
   (Q)    Total solute energy........   -5575.55063858800  (N-C-G)
   (R)    Total solvent energy.......      -0.02093297347  (C/2+G/2)
   (S)    Solute cavity energy.......       0.00000000000
   (U)  Reorganization energy........       0.00136955579  (Q-O)
   (V)  Solvation energy.............      -0.01956341768  (P-O)
  
 SCFE:  Solution phase energy: DFT(m06-2x)      -5575.57157156147 hartrees
        SCF iterations:   2
  
 
 HOMO energy:    -0.27797
 LUMO energy:    -0.06307
 
  Orbital energies (hartrees): 
   -50.05613   -43.30696   -42.05362   -41.60223   -37.51588   -32.55006
   -32.19513   -30.07609   -29.97444   -29.17770   -25.16078   -25.02000
   -23.92865   -22.30618   -21.80452   -18.97070   -18.35876   -17.47602
   -16.83230   -16.73440   -16.56251   -16.03775   -15.63798   -15.60844
   -14.51407   -14.11362   -13.79246   -13.32048   -13.15327   -12.91882
   -12.73581   -12.56181   -12.12140   -11.77295   -11.77093   -11.74565
   -11.54844   -11.52361   -11.50620   -11.41605   -11.06432   -11.05037
   -10.91877   -10.81606   -10.70015   -10.68801   -10.67919   -10.67861
   -10.61940   -10.61859   -10.59860   -10.59223   -10.58250   -10.57251
   -10.56089   -10.55893   -10.55483   -10.54705   -10.54698   -10.53111
   -10.52375   -10.50158   -10.49095   -10.46414   -10.45719   -10.43417
   -10.43314   -10.34539   -10.31707   -10.28693   -10.27357   -10.24599
   -10.19720   -10.18633   -10.15815   -10.14880   -10.03002   -10.01468
    -9.99834    -9.94816    -9.93052    -9.90943    -9.89624    -9.89354
    -9.89294    -9.87856    -9.85579    -9.77567    -9.74595    -9.64279
    -9.60205    -9.59330    -9.57402    -9.47337    -9.42576    -9.25117
    -9.24004    -9.23353    -9.08024    -9.04647    -8.92635    -8.77152
    -8.64421    -8.54677    -8.45684    -8.44087    -8.13578    -7.84325
    -7.58500    -7.45354    -7.21433    -6.57925    -1.46293    -1.35059
    -1.27333    -1.17921    -1.16656    -1.09107    -1.05468    -1.05467
    -1.03838    -0.96358    -0.94126    -0.94090    -0.90147    -0.90026
    -0.89782    -0.89678    -0.88242    -0.87095    -0.86082    -0.86069
    -0.83158    -0.82795    -0.82733    -0.82529    -0.82139    -0.81689
    -0.81329    -0.80981    -0.80773    -0.80598    -0.79957    -0.78564
    -0.78179    -0.78136    -0.78131    -0.78092    -0.78091    -0.78051
    -0.77975    -0.77967    -0.77934    -0.77471    -0.77333    -0.77008
    -0.76951    -0.76909    -0.76695    -0.76054    -0.73757    -0.72809
    -0.72733    -0.72526    -0.72303    -0.71477    -0.71464    -0.71455
    -0.71187    -0.71110    -0.70640    -0.70511    -0.70317    -0.70170
    -0.68719    -0.68645    -0.68113    -0.68015    -0.67937    -0.67394
    -0.66992    -0.66834    -0.66808    -0.66802    -0.66742    -0.66683
    -0.66493    -0.65963    -0.65680    -0.65017    -0.64444    -0.64211
    -0.64101    -0.63965    -0.63513    -0.63421    -0.63313    -0.63165
    -0.62892    -0.62827    -0.62688    -0.62626    -0.62306    -0.61842
    -0.61834    -0.61797    -0.60269    -0.60162    -0.60029    -0.59986
    -0.59359    -0.59264    -0.58682    -0.57970    -0.57930    -0.57669
    -0.57431    -0.57236    -0.57199    -0.57171    -0.56929    -0.56851
    -0.56770    -0.56545    -0.56367    -0.55498    -0.55407    -0.55404
    -0.55250    -0.55057    -0.55000    -0.54861    -0.54781    -0.54314
    -0.54063    -0.53991    -0.53974    -0.53827    -0.53700    -0.53541
    -0.53447    -0.53324    -0.53111    -0.52805    -0.52446    -0.52171
    -0.51982    -0.51800    -0.51517    -0.51416    -0.50932    -0.50891
    -0.50781    -0.50656    -0.50543    -0.50183    -0.50174    -0.50134
    -0.50083    -0.49934    -0.49817    -0.49816    -0.49776    -0.49645
    -0.49195    -0.48981    -0.48734    -0.48578    -0.48552    -0.48533
    -0.48391    -0.47893    -0.47845    -0.47805    -0.47756    -0.47648
    -0.47585    -0.47281    -0.47238    -0.47208    -0.47197    -0.47100
    -0.47057    -0.46902    -0.46877    -0.46812    -0.46607    -0.46483
    -0.46095    -0.45561    -0.45503    -0.45326    -0.45299    -0.45132
    -0.45110    -0.44299    -0.44141    -0.44031    -0.43998    -0.43936
    -0.43742    -0.43610    -0.43564    -0.43317    -0.43248    -0.43189
    -0.42920    -0.42584    -0.42494    -0.42074    -0.41886    -0.41428
    -0.41334    -0.40955    -0.40619    -0.39195    -0.38500    -0.37045
    -0.36597    -0.36428    -0.35709    -0.35634    -0.35444    -0.35089
    -0.34571    -0.32190    -0.32186    -0.31283    -0.31155    -0.31035
    -0.30637    -0.30587    -0.30502    -0.30436    -0.30369    -0.30288
    -0.30281    -0.30095    -0.29549    -0.27797    -0.06307    -0.02429
    -0.01952    -0.00441    -0.00209     0.01044     0.01785     0.01857
     0.02050     0.02113
 
  Peak memory usage:   1029 Mb
  
  end of program scf
   
 Time(scf)  user:     2826.6  user+sys:     2826.6  wallclock:    10146.4
  
  start of program sole
  
    SCRF                   solvation energy
  iteration          Hartrees            kcal/mol
     0               0.0000000            0.0000
     1              -0.0183983          -11.5451
     2              -0.0195634          -12.2762
  
  solvation energy not yet converged... 
  
  Peak memory usage:    813 Mb
  
  end of program sole
   
 Time(sole)  user:        0.2  user+sys:        0.2  wallclock:        0.6
  
  start of program ch
  
  gridpoints used for charge fit        16405
    out of a possible maximum of        16405
  
   Electrostatic potential fitting constrained to reproduce
     total charge:                yes
     dipole moment:               no 
     traceless quadrupole moment: no 
     traceless octapole moment:   no 
  
  Atomic charges from electrostatic potential: 
   
 Atom       C1           C2           C3           C4           H5      
 Charge   -0.14742     -0.46848      0.25305     -0.06329      0.20742
   
 Atom       C6           C7           C8           C9           H10     
 Charge   -0.29306     -0.01678      0.10403      0.05513      0.18601
   
 Atom       C11          C12          C13          C14          C15     
 Charge    0.10383      0.24354     -0.24386     -0.13185     -0.13368
   
 Atom       C16          H17          H18          H19          H20     
 Charge   -0.19304      0.15613      0.14092      0.14765      0.10789
   
 Atom       C21          C22          C23          C24          C25     
 Charge    0.11459      0.13939     -0.14806     -0.19328     -0.09987
   
 Atom       C26          H27          H28          H29          H30     
 Charge   -0.24931      0.13432      0.15814      0.13727      0.15846
   
 Atom       Si31         Si32         C33          C34          C35     
 Charge   -0.26044     -0.17985     -0.13610     -0.15663     -0.06066
   
 Atom       C36          C37          C38          H39          H40     
 Charge    0.06837     -0.09035     -0.16684      0.13528      0.13396
   
 Atom       H41          H42          H43          C44          C45     
 Charge    0.08592      0.11549      0.13582     -0.17926     -0.14146
   
 Atom       C46          C47          C48          C49          H50     
 Charge   -0.19031      0.27698     -0.30371     -0.06620      0.14594
   
 Atom       H51          H52          H53          H54          C55     
 Charge    0.14386      0.11164      0.16235      0.12903     -0.15431
   
 Atom       C56          C57          C58          C59          C60     
 Charge   -0.11654     -0.14981      0.05427     -0.14631     -0.08158
   
 Atom       H61          H62          H63          H64          H65     
 Charge    0.11195      0.13003      0.13940      0.09993      0.09469
   
 Atom       C66          C67          C68          C69          C70     
 Charge   -0.17277     -0.17317     -0.15526      0.14908     -0.10778
   
 Atom       C71          H72          H73          H74          H75     
 Charge   -0.08357      0.15024      0.14727      0.12030      0.05920
   
 Atom       H76          C77          C78          C79          C80     
 Charge    0.09458     -0.17975     -0.05528     -0.30208      0.18774
   
 Atom       C81          C82          H83          H84          H85     
 Charge   -0.14167     -0.12404      0.13703      0.12000      0.18639
   
 Atom       H86          H87          C88          C89          C90     
 Charge    0.08247      0.12626     -0.13263     -0.16568     -0.12389
   
 Atom       C91          C92          C93          H94          H95     
 Charge    0.12290     -0.17234     -0.14615      0.13875      0.14568
   
 Atom       H96          H97          H98          O99          O100    
 Charge    0.11217      0.13164      0.13873     -0.10039     -0.22021
   
 Atom       P101         O102         N103         H104         C105    
 Charge    0.93753     -0.62306     -0.28441      0.33922     -0.21285
   
 Atom       C106         C107         C108         C109         C110    
 Charge   -0.10534     -0.16202     -0.22236      0.47690     -0.28166
   
 Atom       C111         H112         H113         H114         H115    
 Charge   -0.15346      0.14495      0.14079      0.15681      0.19915
   
 Atom       H116         H117         N118         S119         O120    
 Charge    0.15902      0.15911     -0.45203      0.55734     -0.41723
   
 Atom       O121         C122         F123         F124         F125    
 Charge   -0.45210      0.43569     -0.14714     -0.11677     -0.11142
   
 Atom       C126         C127         C128         C129         N130    
 Charge    0.21985     -0.17632     -0.28573     -0.00408     -0.20702
   
 Atom       H131         H132         H133         H134         H135    
 Charge   -0.02424      0.19155      0.19944      0.16353      0.30897
   
 Atom       S136         O137         O138         C139         C140    
 Charge    0.56156     -0.42498     -0.42075     -0.46593      0.45026
   
 Atom       N141         C142         C143         C144         H145    
 Charge   -0.66172      0.62031     -0.47037      0.19384      0.21604
   
 Atom       H146         H147         H148    
 Charge    0.05252      0.22064      0.12384
  
  sum of atomic charges:    -0.000000
   
 RMS Error   9.79E-04 hartrees
 
  Peak memory usage:    816 Mb
  
  end of program ch
   
 Time(ch)  user:       19.2  user+sys:       19.2  wallclock:       67.0
  
  start of program post
  
  Writing input files for PBF
  Peak memory usage:    759 Mb
  
  end of program post
   
 Time(post)  user:        0.9  user+sys:        0.9  wallclock:        3.1

  start of program pbf

Pbf Version 4.10

Molecular surface area:      826.41339   [A2]
Reaction field energy:       -20.42995   [kT]
  Peak memory usage: 721 Mb

  end of program pbf

 Time(pbf)  user:       13.6  user+sys:       13.8  wallclock:       40.9
  
  start of program solv
  
   number of surface charges from PBF   13518
   sum of surface charges     -0.00038
   
  nuclear repulsion energy.......   20895.505296864 hartrees
  Peak memory usage:    894 Mb
  
  end of program solv
   
 Time(solv)  user:       39.0  user+sys:       39.0  wallclock:      113.6
  
  start of program scf
  
 Energy computed with NOPS off.
  
       i  u  d  i  g                   
       t  p  i  c  r                                 RMS    maximum
       e  d  i  u  i                       energy  density   DIIS  
       r  t  s  t  d       total energy    change  change    error 
  
etot    1  N  N  1  U   -5575.59283088256           5.7E-06  1.1E-04
etot    2  N  N  1  U   -5575.59281362357 -1.7E-05  0.0E+00  0.0E+00
  
  
 Energy components, in hartrees:
   (A)  Total zero-electron terms....   20898.88335958273
   (B)    Nuclear-nuclear............   20895.50529686423
   (C)    Nuclear-solvent............       3.37806271850
   (E)  Total one-electron terms.....  -49323.59408508324
   (F)    Electron-nuclear...........  -54856.23502447765
   (G)    Electron-solvent...........      -3.42012570976
   (H)    Kinetic....................    5536.06106510416
   (I)  Total two-electron terms.....   22849.11791187694
   (J)    Coulomb....................   23500.39565178399
   (K)    Exchange+Correlation.......    -651.27773990705
   (L)  Electronic energy............  -26474.47617320630  (E+I)
   (N)  Total quantum mech. energy...   -5575.59281362357  (A+L)
   (O)  Gas phase energy.............   -5575.55200814379
   (P)  Solution phase energy........   -5575.57178212794  (Q+R+S)
   (Q)    Total solute energy........   -5575.55075063231  (N-C-G)
   (R)    Total solvent energy.......      -0.02103149563  (C/2+G/2)
   (S)    Solute cavity energy.......       0.00000000000
   (U)  Reorganization energy........       0.00125751148  (Q-O)
   (V)  Solvation energy.............      -0.01977398415  (P-O)
  
 SCFE:  Solution phase energy: DFT(m06-2x)      -5575.57178212794 hartrees
        SCF iterations:   2
  
 
 HOMO energy:    -0.25431
 LUMO energy:    -0.06448
 
  Orbital energies (hartrees): 
   -90.18428   -90.15745   -78.21450   -67.01128   -67.01012   -25.29611
   -25.29344   -25.29068   -19.69466   -19.69189   -19.66134   -19.65873
   -19.63339   -19.62642   -19.61008   -14.82444   -14.81999   -14.79679
   -14.74715   -10.80886   -10.66468   -10.63875   -10.63045   -10.62100
   -10.61055   -10.60906   -10.59631   -10.59088   -10.59067   -10.58284
   -10.58147   -10.57599   -10.57286   -10.56810   -10.56777   -10.56708
   -10.56637   -10.56636   -10.56339   -10.56215   -10.56016   -10.55973
   -10.55959   -10.55829   -10.55758   -10.55681   -10.55387   -10.55381
   -10.55341   -10.55295   -10.55185   -10.55128   -10.55109   -10.55073
   -10.55034   -10.55029   -10.55024   -10.55000   -10.54999   -10.54988
   -10.54976   -10.54932   -10.54922   -10.54884   -10.54838   -10.54832
   -10.54814   -10.54799   -10.54788   -10.54734   -10.54703   -10.54693
   -10.54650   -10.54636   -10.54613   -10.54611   -10.54544   -10.54543
   -10.54535   -10.54246   -10.54134   -10.54051   -10.53944   -10.53917
   -10.53811   -10.53743   -10.53656   -10.53570   -10.53543   -10.53337
   -10.53143   -10.52658    -8.49443    -8.46599    -6.99406    -6.41670
    -6.41555    -6.41495    -6.38781    -6.38746    -6.38740    -5.54278
    -5.54103    -5.11262    -5.11156    -5.10986    -3.85247    -3.85234
    -3.85201    -3.85084    -3.85054    -3.85030    -1.45944    -1.36905
    -1.36740    -1.25409    -1.23598    -1.21850    -1.19173    -1.13994
    -1.10942    -1.10536    -1.09268    -1.08887    -1.06914    -0.99311
    -0.98094    -0.97128    -0.96606    -0.94685    -0.94621    -0.94289
    -0.94179    -0.93971    -0.93322    -0.92755    -0.92089    -0.91124
    -0.90513    -0.89075    -0.89075    -0.87916    -0.85358    -0.85070
    -0.84731    -0.84461    -0.84048    -0.83935    -0.83738    -0.83687
    -0.83548    -0.83486    -0.83220    -0.82933    -0.82823    -0.82714
    -0.82663    -0.82625    -0.82446    -0.82307    -0.82061    -0.81555
    -0.80134    -0.76403    -0.75567    -0.74179    -0.73302    -0.71796
    -0.70877    -0.70528    -0.70093    -0.69819    -0.69060    -0.68582
    -0.68461    -0.68399    -0.68117    -0.67930    -0.67783    -0.67514
    -0.67384    -0.67330    -0.67219    -0.67162    -0.66918    -0.66609
    -0.66401    -0.66388    -0.66176    -0.65999    -0.65690    -0.65568
    -0.65109    -0.64469    -0.63902    -0.62727    -0.61504    -0.61126
    -0.60962    -0.60435    -0.60021    -0.58820    -0.58243    -0.58147
    -0.58128    -0.58052    -0.57920    -0.57517    -0.57472    -0.57316
    -0.56814    -0.56628    -0.56083    -0.56040    -0.55455    -0.55233
    -0.55088    -0.54465    -0.54054    -0.53853    -0.53541    -0.53449
    -0.53045    -0.52910    -0.52700    -0.52326    -0.52212    -0.52094
    -0.51954    -0.51912    -0.51658    -0.51504    -0.51290    -0.51029
    -0.50908    -0.50735    -0.50448    -0.50399    -0.50327    -0.50272
    -0.50126    -0.50099    -0.49963    -0.49817    -0.49706    -0.49549
    -0.49459    -0.49266    -0.49134    -0.49018    -0.48978    -0.48962
    -0.48437    -0.48380    -0.48216    -0.48163    -0.48068    -0.47915
    -0.47782    -0.47295    -0.47105    -0.46669    -0.46551    -0.46252
    -0.46118    -0.45574    -0.45426    -0.45178    -0.44985    -0.44796
    -0.44591    -0.44355    -0.44047    -0.43814    -0.43326    -0.43324
    -0.43098    -0.42641    -0.42505    -0.42419    -0.42292    -0.42152
    -0.41981    -0.41924    -0.41563    -0.41214    -0.40912    -0.40762
    -0.40469    -0.40265    -0.39952    -0.39657    -0.39394    -0.39332
    -0.39275    -0.39202    -0.39151    -0.39016    -0.38895    -0.38740
    -0.38502    -0.38137    -0.38045    -0.37708    -0.37603    -0.37247
    -0.36457    -0.35888    -0.35771    -0.35315    -0.35026    -0.34954
    -0.34549    -0.34397    -0.34329    -0.34223    -0.34071    -0.33847
    -0.33183    -0.32521    -0.31900    -0.31757    -0.30953    -0.30796
    -0.30396    -0.30372    -0.30320    -0.29982    -0.29837    -0.29804
    -0.29718    -0.29637    -0.29087    -0.28967    -0.28660    -0.28476
    -0.28256    -0.28158    -0.27194    -0.25431    -0.06448    -0.02522
    -0.02018    -0.00485    -0.00271     0.00970     0.01714     0.01793
     0.02003     0.02075
 
  Peak memory usage:   1029 Mb
  
  end of program scf
   
 Time(scf)  user:     2766.6  user+sys:     2766.6  wallclock:     6952.8
  
  start of program sole
  
    SCRF                   solvation energy
  iteration          Hartrees            kcal/mol
     0               0.0000000            0.0000
     1              -0.0183983          -11.5451
     2              -0.0195634          -12.2762
     3              -0.0197740          -12.4084
  
  solvation energy not yet converged... 
  
  Peak memory usage:    813 Mb
  
  end of program sole
   
 Time(sole)  user:        0.2  user+sys:        0.2  wallclock:        0.4
  
  start of program ch
  
  gridpoints used for charge fit        16405
    out of a possible maximum of        16405
  
   Electrostatic potential fitting constrained to reproduce
     total charge:                yes
     dipole moment:               no 
     traceless quadrupole moment: no 
     traceless octapole moment:   no 
  
  Atomic charges from electrostatic potential: 
   
 Atom       C1           C2           C3           C4           H5      
 Charge   -0.14603     -0.46869      0.25354     -0.06313      0.20709
   
 Atom       C6           C7           C8           C9           H10     
 Charge   -0.29531     -0.01455      0.10415      0.05624      0.18603
   
 Atom       C11          C12          C13          C14          C15     
 Charge    0.10324      0.24312     -0.24355     -0.13307     -0.13568
   
 Atom       C16          H17          H18          H19          H20     
 Charge   -0.19135      0.15606      0.14116      0.14794      0.10755
   
 Atom       C21          C22          C23          C24          C25     
 Charge    0.11500      0.13929     -0.14664     -0.19487     -0.10072
   
 Atom       C26          H27          H28          H29          H30     
 Charge   -0.24982      0.13394      0.15837      0.13745      0.15856
   
 Atom       Si31         Si32         C33          C34          C35     
 Charge   -0.25999     -0.17931     -0.13834     -0.15617     -0.06106
   
 Atom       C36          C37          C38          H39          H40     
 Charge    0.07110     -0.08916     -0.16831      0.13559      0.13378
   
 Atom       H41          H42          H43          C44          C45     
 Charge    0.08611      0.11505      0.13601     -0.18023     -0.14205
   
 Atom       C46          C47          C48          C49          H50     
 Charge   -0.18965      0.27802     -0.30263     -0.06729      0.14609
   
 Atom       H51          H52          H53          H54          C55     
 Charge    0.14392      0.11118      0.16197      0.12912     -0.15427
   
 Atom       C56          C57          C58          C59          C60     
 Charge   -0.11798     -0.15048      0.05569     -0.14633     -0.08162
   
 Atom       H61          H62          H63          H64          H65     
 Charge    0.11179      0.13006      0.13934      0.10039      0.09466
   
 Atom       C66          C67          C68          C69          C70     
 Charge   -0.17342     -0.17423     -0.15545      0.14971     -0.10639
   
 Atom       C71          H72          H73          H74          H75     
 Charge   -0.08407      0.15038      0.14742      0.11995      0.05910
   
 Atom       H76          C77          C78          C79          C80     
 Charge    0.09458     -0.18128     -0.05490     -0.30178      0.18952
   
 Atom       C81          C82          H83          H84          H85     
 Charge   -0.14027     -0.12622      0.13718      0.11994      0.18635
   
 Atom       H86          H87          C88          C89          C90     
 Charge    0.08200      0.12654     -0.13349     -0.16613     -0.12381
   
 Atom       C91          C92          C93          H94          H95     
 Charge    0.12394     -0.17135     -0.14698      0.13888      0.14573
   
 Atom       H96          H97          H98          O99          O100    
 Charge    0.11188      0.13138      0.13880     -0.09989     -0.22037
   
 Atom       P101         O102         N103         H104         C105    
 Charge    0.93862     -0.62421     -0.27685      0.33723     -0.21411
   
 Atom       C106         C107         C108         C109         C110    
 Charge   -0.10783     -0.16375     -0.22309      0.48126     -0.27985
   
 Atom       C111         H112         H113         H114         H115    
 Charge   -0.15518      0.14550      0.14073      0.15683      0.19887
   
 Atom       H116         H117         N118         S119         O120    
 Charge    0.15929      0.16009     -0.45062      0.55639     -0.41776
   
 Atom       O121         C122         F123         F124         F125    
 Charge   -0.45189      0.43567     -0.14752     -0.11679     -0.11113
   
 Atom       C126         C127         C128         C129         N130    
 Charge    0.21925     -0.17460     -0.28889     -0.00936     -0.20461
   
 Atom       H131         H132         H133         H134         H135    
 Charge   -0.02319      0.19158      0.20018      0.16428      0.30865
   
 Atom       S136         O137         O138         C139         C140    
 Charge    0.56426     -0.42639     -0.42381     -0.46867      0.45062
   
 Atom       N141         C142         C143         C144         H145    
 Charge   -0.65910      0.62278     -0.47130      0.19102      0.21658
   
 Atom       H146         H147         H148    
 Charge    0.05218      0.22054      0.12449
  
  sum of atomic charges:    -0.000000
   
 RMS Error   9.80E-04 hartrees
 
  Peak memory usage:    816 Mb
  
  end of program ch
   
 Time(ch)  user:       19.2  user+sys:       19.2  wallclock:       35.6
  
  start of program post
  
  Writing input files for PBF
  Peak memory usage:    759 Mb
  
  end of program post
   
 Time(post)  user:        0.8  user+sys:        0.8  wallclock:        2.3

  start of program pbf

Pbf Version 4.10

Molecular surface area:      826.41339   [A2]
Reaction field energy:       -20.30490   [kT]
  Peak memory usage: 721 Mb

  end of program pbf

 Time(pbf)  user:       13.5  user+sys:       13.5  wallclock:       25.2
  
  start of program solv
  
   number of surface charges from PBF   13518
   sum of surface charges     -0.00037
   
  nuclear repulsion energy.......   20895.505296864 hartrees
  Peak memory usage:    894 Mb
  
  end of program solv
   
 Time(solv)  user:       38.3  user+sys:       38.3  wallclock:       71.0
  
  start of program scf
  
 Energy computed with NOPS off.
  
       i  u  d  i  g                   
       t  p  i  c  r                                 RMS    maximum
       e  d  i  u  i                       energy  density   DIIS  
       r  t  s  t  d       total energy    change  change    error 
  
etot    1  N  N  1  U   -5575.59269877102           9.0E-06  1.9E-04
etot    2  N  Y  1  U   -5575.59264180558 -5.7E-05  5.8E-06  3.5E-04
etot    3  N  Y  1  U   -5575.59272327056  8.1E-05  2.1E-07  1.1E-05
etot    4  N  N  1  U   -5575.59272335455  8.4E-08  0.0E+00  0.0E+00
  
  
 Energy components, in hartrees:
   (A)  Total zero-electron terms....   20898.84502900992
   (B)    Nuclear-nuclear............   20895.50529686423
   (C)    Nuclear-solvent............       3.33973214569
   (E)  Total one-electron terms.....  -49323.82026402194
   (F)    Electron-nuclear...........  -54856.50527509250
   (G)    Electron-solvent...........      -3.38175109732
   (H)    Kinetic....................    5536.06676216787
   (I)  Total two-electron terms.....   22849.38251165747
   (J)    Coulomb....................   23500.66059346640
   (K)    Exchange+Correlation.......    -651.27808180893
   (L)  Electronic energy............  -26474.43775236447  (E+I)
   (N)  Total quantum mech. energy...   -5575.59272335455  (A+L)
   (O)  Gas phase energy.............   -5575.55200814379
   (P)  Solution phase energy........   -5575.57171387873  (Q+R+S)
   (Q)    Total solute energy........   -5575.55070440292  (N-C-G)
   (R)    Total solvent energy.......      -0.02100947582  (C/2+G/2)
   (S)    Solute cavity energy.......       0.00000000000
   (U)  Reorganization energy........       0.00130374087  (Q-O)
   (V)  Solvation energy.............      -0.01970573494  (P-O)
  
 SCFE:  Solution phase energy: DFT(m06-2x)      -5575.57171387873 hartrees
        SCF iterations:   4
  
 
 HOMO energy:    -0.25391
 LUMO energy:    -0.06361
 
  Orbital energies (hartrees): 
   -90.18260   -90.15669   -78.21342   -67.01035   -67.00913   -25.29517
   -25.29341   -25.29035   -19.69352   -19.69091   -19.66062   -19.65989
   -19.63278   -19.62649   -19.60997   -14.82120   -14.81938   -14.79406
   -14.74563   -10.80834   -10.66180   -10.63685   -10.62933   -10.61974
   -10.61217   -10.60867   -10.59470   -10.59178   -10.59103   -10.58247
   -10.58087   -10.57495   -10.57246   -10.56743   -10.56717   -10.56602
   -10.56599   -10.56558   -10.56442   -10.56218   -10.56023   -10.56009
   -10.55955   -10.55918   -10.55791   -10.55731   -10.55402   -10.55362
   -10.55350   -10.55288   -10.55156   -10.55145   -10.55104   -10.55084
   -10.55078   -10.55057   -10.55037   -10.55001   -10.54974   -10.54972
   -10.54960   -10.54930   -10.54904   -10.54894   -10.54828   -10.54812
   -10.54798   -10.54797   -10.54788   -10.54775   -10.54708   -10.54707
   -10.54680   -10.54633   -10.54588   -10.54575   -10.54563   -10.54523
   -10.54450   -10.54134   -10.54107   -10.53959   -10.53910   -10.53821
   -10.53736   -10.53711   -10.53574   -10.53474   -10.53408   -10.53253
   -10.53016   -10.52546    -8.49283    -8.46524    -6.99301    -6.41510
    -6.41395    -6.41334    -6.38706    -6.38671    -6.38665    -5.54187
    -5.54007    -5.11156    -5.11050    -5.10881    -3.85156    -3.85143
    -3.85110    -3.84987    -3.84957    -3.84933    -1.45897    -1.36850
    -1.36702    -1.25325    -1.23503    -1.21787    -1.19072    -1.13940
    -1.10910    -1.10483    -1.09210    -1.08758    -1.06709    -0.99214
    -0.98045    -0.97093    -0.96580    -0.94664    -0.94597    -0.94271
    -0.94155    -0.93946    -0.93263    -0.92760    -0.92064    -0.91096
    -0.90434    -0.89064    -0.89031    -0.87856    -0.85329    -0.85059
    -0.84690    -0.84435    -0.84012    -0.83908    -0.83724    -0.83667
    -0.83525    -0.83461    -0.83192    -0.82892    -0.82786    -0.82685
    -0.82638    -0.82596    -0.82392    -0.82277    -0.82007    -0.81474
    -0.80097    -0.76338    -0.75498    -0.74139    -0.73244    -0.71718
    -0.70827    -0.70487    -0.70056    -0.69779    -0.69017    -0.68541
    -0.68422    -0.68363    -0.68088    -0.67910    -0.67752    -0.67486
    -0.67364    -0.67299    -0.67180    -0.67125    -0.66890    -0.66574
    -0.66382    -0.66343    -0.66126    -0.65965    -0.65629    -0.65519
    -0.65064    -0.64429    -0.63857    -0.62675    -0.61434    -0.61068
    -0.60926    -0.60399    -0.59979    -0.58754    -0.58220    -0.58128
    -0.58096    -0.58017    -0.57894    -0.57492    -0.57432    -0.57273
    -0.56769    -0.56579    -0.56048    -0.55996    -0.55396    -0.55177
    -0.55037    -0.54422    -0.54015    -0.53813    -0.53499    -0.53406
    -0.52999    -0.52859    -0.52666    -0.52286    -0.52179    -0.52053
    -0.51933    -0.51886    -0.51625    -0.51472    -0.51260    -0.50988
    -0.50866    -0.50706    -0.50412    -0.50366    -0.50285    -0.50244
    -0.50097    -0.50073    -0.49934    -0.49771    -0.49660    -0.49519
    -0.49430    -0.49245    -0.49112    -0.49000    -0.48933    -0.48913
    -0.48423    -0.48359    -0.48196    -0.48139    -0.48046    -0.47873
    -0.47750    -0.47246    -0.47071    -0.46666    -0.46507    -0.46252
    -0.46081    -0.45548    -0.45394    -0.45145    -0.44958    -0.44740
    -0.44557    -0.44329    -0.43998    -0.43775    -0.43295    -0.43275
    -0.43058    -0.42621    -0.42476    -0.42391    -0.42263    -0.42108
    -0.41953    -0.41893    -0.41517    -0.41178    -0.40866    -0.40717
    -0.40411    -0.40236    -0.39926    -0.39591    -0.39378    -0.39313
    -0.39262    -0.39177    -0.39126    -0.38958    -0.38866    -0.38700
    -0.38466    -0.38081    -0.38000    -0.37653    -0.37562    -0.37203
    -0.36426    -0.35832    -0.35718    -0.35253    -0.34960    -0.34842
    -0.34496    -0.34341    -0.34274    -0.34181    -0.34022    -0.33792
    -0.33156    -0.32482    -0.31851    -0.31684    -0.30941    -0.30770
    -0.30378    -0.30349    -0.30298    -0.29956    -0.29806    -0.29780
    -0.29677    -0.29610    -0.29037    -0.28915    -0.28602    -0.28438
    -0.28217    -0.28093    -0.27166    -0.25391    -0.06361    -0.02464
    -0.01981    -0.00457    -0.00235     0.01012     0.01756     0.01832
     0.02031     0.02097
 
  Peak memory usage:   1029 Mb
  
  end of program scf
   
 Time(scf)  user:     8245.4  user+sys:     8245.4  wallclock:    15919.7
  
  start of program sole
  
    SCRF                   solvation energy
  iteration          Hartrees            kcal/mol
     0               0.0000000            0.0000
     1              -0.0183983          -11.5451
     2              -0.0195634          -12.2762
     3              -0.0197740          -12.4084
     4              -0.0197057          -12.3655
  
  stopping: solvation energy converged
  
  iterations:   4    sfinal:    -12.3655 kcal/mol
  
  Peak memory usage:    813 Mb
  
  end of program sole
   
 Time(sole)  user:        0.2  user+sys:        0.2  wallclock:        0.4
  
  start of program post
  
  Writing input files for PBF
  Peak memory usage:    759 Mb
  
  end of program post
   
 Time(post)  user:        0.8  user+sys:        0.8  wallclock:        2.0

 Total cpu seconds     user:   65166.535   user+sys:   65166.535
  
 Total elapsed time:    245745 seconds

Job Type-II-Z-sulfonyl-bind-2-chkp-scan-unrestrained.1-SPE completed on tethys at Fri Mar 17 12:56:54 2017
