Job Toru-NTf-Sulfonyl-1-chkp-unrestrained-IRC-min-disp-SPE started on tethys at Fri Mar 24 13:45:13 2017
jobid: tethys-0-58d522e7

  +--------------------------------------------------------------------+
  |  Jaguar version 9.5, release  11                                   |
  |                                                                    |
  |  Copyright Schrodinger, Inc.                                       |
  |  All Rights Reserved.                                              |
  |                                                                    |
  |  The following have contributed to Jaguar (listed alphabetically): |
  |  Mike Beachy, Art Bochevarov, Dale Braden, Yixiang Cao,            |
  |  Chris Cortis, Rich Friesner, Bill Goddard, Hod Greeley,           |
  |  Tom Hughes, Leif Jacobson, Jean-Marc Langlois,                    |
  |  Daniel Mainz, Rob Murphy, Dean Philipp, Tom Pollard,              |
  |  Murco Ringnalda, Mark Watson, Haoyu Yu.                           |
  |                                                                    |
  |  Use of this program should be acknowledged in publications as:    |
  |                                                                    |
  |  Jaguar, version 9.5, Schrodinger, Inc., New York, NY, 2017.       |
  |                                                                    |
  |  A. D. Bochevarov, E. Harder, T. F. Hughes, J. R. Greenwood,       |
  |  D. A. Braden, D. M. Philipp, D. Rinaldo, M. D. Halls,             |
  |  J. Zhang, R. A. Friesner, "Jaguar: A High-Performance Quantum     |
  |  Chemistry Software Program with Strengths in Life and Materials   |
  |  Sciences", Int. J. Quantum Chem., 2013, 113(18), 2110-2142.       |
  +--------------------------------------------------------------------+
  
  start of program pre
  
  Job name: Toru-NTf-Sulfonyl-1-chkp-unrestrained-IRC-min-disp-SPE
  Executables used: /usr/local/shared/schrodinger/current/jaguar-v9.5/bin/Linux-x86_64
  Temporary files : /scratch/ab2144/Toru-NTf-Sulfonyl-1-chkp-unrestrained-IRC-min-disp-SPE
  Maestro file (input):  Toru-NTf-Sulfonyl-1-chkp-unrestrained-IRC-min-disp-SPE.mae
  Maestro file (output): Toru-NTf-Sulfonyl-1-chkp-unrestrained-IRC-min-disp-SPE.01.mae
  
  basis set:             6-31g**                         
  net molecular charge:    0
  multiplicity:            1
  
  keygrid settings 
    wispc.....   7.500E-01
    ldens.....   0
    denspc....   7.500E-01
  
   grid     daf set  nls  grid set  Q type
  ------    -------  ---  --------  ------
  coarse       1      1       1        1
  medium       2      2       2        1
  fine         3      2       3        0
  ultrafine    4      2       4        1
  charge       0      1      -1        1
  gradient     5      2       4        1
  density      0      1       0        0
  DFT-fine     0      1     -13        0
  DFT-med.     0      1     -13        0
  DFT-grad     0      1     -13        0
  DFT-der2     0      1       0        0
  DFT-cphf     0      1       0        0
  LMP2-enrg    4      2       4        1
  LMP2-grad    5      2       2        1
  DFT-cphf2    0      1       0        0
  PBF-dens     0      1       0        0
  plotting     0      1       0        0
  Rel-grad     0      1     -17        0
  
  idftgrdm  100
  ndftgrdm   50    0    0
  idftgrdf  111
  ndftgrdf   85    0    0
  idftgrdg  111
  ndftgrdg   80    3    0
  idftgrdu  433
  ndftgrdu  105    0    0
  idftgrdd  433
  ndftgrdd  105    0    0
  idftgrdc  433
  ndftgrdc   26    0    0
  idftgrdp  433
  ndftgrdp   18    0    0
  
  number of basis functions....         1680
  
 Input geometry:
                                   angstroms
  atom               x                 y                 z
  C1           -6.2140000000     -1.4182000000     -0.2049000000 
  C2           -4.8915000000     -2.1057000000     -0.2030000000 
  C3           -7.3277000000     -2.0891000000      0.1106000000 
  C4           -4.8323000000     -3.4010000000      0.1778000000 
  C5           -3.6306000000     -1.3869000000     -0.5672000000 
  C6           -6.0725000000     -4.1358000000      0.5205000000 
  C7           -3.5290000000     -4.0755000000      0.3108000000 
  C8           -7.2553000000     -3.5144000000      0.4807000000 
  C9           -2.4337000000     -1.9953000000     -0.3783000000 
  C10          -3.6714000000      0.0217000000     -1.0420000000 
  C11          -2.3867000000     -3.4174000000      0.0661000000 
  O12          -1.2682000000     -1.3557000000     -0.7333000000 
  Si13         -0.7655000000     -4.2584000000      0.4504000000 
  C14          -4.3404000000      0.4065000000     -2.1529000000 
  C15          -2.9574000000      1.0403000000     -0.2263000000 
  C16          -4.4821000000      1.8538000000     -2.4561000000 
  C17          -4.9586000000     -0.5551000000     -3.0997000000 
  C18          -3.9281000000      2.7706000000     -1.6513000000 
  C19          -5.2645000000      2.2550000000     -3.6419000000 
  C20          -3.1103000000      2.3547000000     -0.4897000000 
  Si21         -2.2809000000      3.7001000000      0.5098000000 
  O22          -2.1372000000      0.6115000000      0.7857000000 
  C23          -5.6447000000     -0.1171000000     -4.1620000000 
  C24          -5.8089000000      1.3269000000     -4.4366000000 
  P25          -0.7829000000     -0.1365000000      0.2591000000 
  O26          -0.0076000000     -0.6102000000      1.4390000000 
  N27          -0.1018000000      0.9489000000     -0.7478000000 
  C28          -1.0087000000     -6.1119000000      0.3889000000 
  C29           0.5065000000     -3.7713000000     -0.8243000000 
  C30          -0.2334000000     -3.7742000000      2.1730000000 
  C31          -0.9680000000      4.5363000000     -0.5180000000 
  C32          -3.6242000000      4.9078000000      0.9641000000 
  C33          -1.4937000000      3.0280000000      2.0631000000 
  C34          -1.4768000000     -6.6991000000     -0.7268000000 
  C35          -0.7401000000     -6.9515000000      1.5849000000 
  C36           0.2607000000     -3.9637000000     -2.1320000000 
  C37           1.7976000000     -3.1640000000     -0.4160000000 
  C38          -1.0257000000     -3.0187000000      2.9546000000 
  C39           1.0545000000     -4.2738000000      2.7159000000 
  C40          -0.7616000000      4.1974000000     -1.8025000000 
  C41          -0.1173000000      5.5822000000      0.1018000000 
  C42          -3.4790000000      6.2304000000      0.7722000000 
  C43          -4.9098000000      4.3895000000      1.4940000000 
  C44          -2.2522000000      2.6100000000      3.0914000000 
  C45          -0.0196000000      2.8702000000      2.1412000000 
  C46          -1.6798000000     -8.1618000000     -0.7759000000 
  C47          -1.4148000000     -8.9120000000      0.2987000000 
  C48          -0.9286000000     -8.2762000000      1.5382000000 
  C49           1.2892000000     -3.6423000000     -3.1425000000 
  C50           2.4656000000     -3.1337000000     -2.7625000000 
  C51           2.7269000000     -2.8738000000     -1.3341000000 
  C52          -0.6085000000     -2.6753000000      4.3299000000 
  C53           0.5545000000     -3.1284000000      4.8111000000 
  C54           1.4263000000     -3.9671000000      3.9646000000 
  C55           0.2872000000      4.8756000000     -2.5926000000 
  C56           1.0472000000      5.8208000000     -2.0281000000 
  C57           0.8356000000      6.1903000000     -0.6147000000 
  C58          -4.5729000000      7.1593000000      1.1261000000 
  C59          -5.7216000000      6.6861000000      1.6223000000 
  C60          -5.9004000000      5.2328000000      1.8087000000 
  C61          -1.6241000000      2.0139000000      4.2891000000 
  C62          -0.2950000000      1.8800000000      4.3535000000 
  C63           0.5451000000      2.3291000000      3.2274000000 
  C64           4.3890000000      3.6541000000      3.9236000000 
  C65           4.8456000000      2.4485000000      3.3934000000 
  C66           4.5355000000      2.0808000000      2.0770000000 
  C67           3.7729000000      2.9511000000      1.2913000000 
  C68           3.3226000000      4.1614000000      1.8220000000 
  C69           3.6217000000      4.5149000000      3.1366000000 
  C70           5.0680000000      0.7596000000      1.5324000000 
  N71           5.0812000000      0.7261000000      0.0754000000 
  S72           6.2773000000     -0.2548000000     -0.5986000000 
  O73           7.5747000000      0.3292000000     -0.2500000000 
  O74           6.0535000000     -1.6789000000     -0.2598000000 
  C75           5.8962000000     -0.0588000000     -2.3613000000 
  C76           5.7023000000     -1.2060000000     -3.1259000000 
  C77           5.4390000000     -1.0168000000     -4.4831000000 
  C78           5.3790000000      0.2819000000     -4.9828000000 
  C79           5.5911000000      1.3519000000     -4.1088000000 
  N80           5.8577000000      1.1890000000     -2.8095000000 
  N81           2.8773000000     -0.4802000000      1.9465000000 
  C82           2.2600000000     -0.6628000000      3.0779000000 
  C83           3.2168000000     -0.8463000000      4.1419000000 
  C84           4.4490000000     -0.7606000000      3.5857000000 
  C85           4.3231000000     -0.5158000000      2.1226000000 
  H86          -6.2933000000     -0.3666000000     -0.4429000000 
  H87          -8.2849000000     -1.5838000000      0.1079000000 
  H88          -6.0253000000     -5.1791000000      0.8073000000 
  H89          -3.5120000000     -5.0952000000      0.6739000000 
  H90          -8.1604000000     -4.0517000000      0.7326000000 
  H91          -4.8519000000     -1.6225000000     -2.9551000000 
  H92          -4.0464000000      3.8261000000     -1.8681000000 
  H93          -5.4011000000      3.3037000000     -3.8774000000 
  H94          -6.0868000000     -0.8335000000     -4.8427000000 
  H95          -6.3779000000      1.6352000000     -5.3042000000 
  H96          -1.7374000000     -6.1171000000     -1.5976000000 
  H97          -0.4089000000     -6.5074000000      2.5114000000 
  H98          -0.6890000000     -4.3491000000     -2.4714000000 
  H99           1.9977000000     -2.9316000000      0.6185000000 
  H100         -1.9777000000     -2.6489000000      2.5993000000 
  H101          1.6952000000     -4.8989000000      2.1066000000 
  H102         -1.3424000000      3.4223000000     -2.2808000000 
  H103         -0.2596000000      5.8535000000      1.1405000000 
  H104         -2.5719000000      6.6431000000      0.3578000000 
  H105         -5.0643000000      3.3243000000      1.6081000000 
  H106         -3.3289000000      2.6787000000      3.0550000000 
  H107          0.6081000000      3.1580000000      1.3100000000 
  H108         -2.0464000000     -8.6236000000     -1.6835000000 
  H109         -1.5649000000     -9.9834000000      0.2651000000 
  H110         -0.7353000000     -8.8836000000      2.4130000000 
  H111          1.0872000000     -3.8187000000     -4.1910000000 
  H112          3.2184000000     -2.8956000000     -3.5018000000 
  H113          3.6631000000     -2.4270000000     -1.0328000000 
  H114         -1.2465000000     -2.0551000000      4.9461000000 
  H115          0.8621000000     -2.8759000000      5.8175000000 
  H116          2.3664000000     -4.3324000000      4.3569000000 
  H117          0.4444000000      4.5981000000     -3.6268000000 
  H118          1.8197000000      6.3136000000     -2.6041000000 
  H119          1.4566000000      6.9502000000     -0.1583000000 
  H120         -4.4421000000      8.2239000000      0.9811000000 
  H121         -6.5238000000      7.3654000000      1.8800000000 
  H122         -6.8387000000      4.8508000000      2.1897000000 
  H123         -2.2437000000      1.6782000000      5.1105000000 
  H124          0.1664000000      1.4350000000      5.2256000000 
  H125          1.6173000000      2.2009000000      3.2771000000 
  H126          4.6440000000      3.9253000000      4.9438000000 
  H127          5.4658000000      1.7997000000      4.0073000000 
  H128          3.5308000000      2.7099000000      0.2636000000 
  H129          2.7304000000      4.8214000000      1.1972000000 
  H130          3.2668000000      5.4566000000      3.5445000000 
  H131          6.1085000000      0.6535000000      1.8587000000 
  H132          5.7459000000     -2.1863000000     -2.6680000000 
  H133          5.2753000000     -1.8704000000     -5.1332000000 
  H134          5.1661000000      0.4706000000     -6.0297000000 
  H135          5.5468000000      2.3785000000     -4.4635000000 
  H136          2.3992000000     -0.3234000000      1.0365000000 
  H137          1.1757000000     -0.6693000000      3.0860000000 
  H138          2.9608000000     -1.0267000000      5.1762000000 
  H139          5.4028000000     -0.8695000000      4.0859000000 
  H140          4.7296000000     -1.3700000000      1.5568000000 
  S141          1.3516000000      1.0599000000     -1.2816000000 
  O142          2.3325000000      0.0897000000     -0.6713000000 
  C143          1.2291000000      0.4749000000     -3.0502000000 
  O144          1.8456000000      2.4362000000     -1.3901000000 
  F145          0.5903000000      1.3890000000     -3.7860000000 
  F146          2.4582000000      0.2935000000     -3.5600000000 
  F147          0.5599000000     -0.6780000000     -3.1158000000 
  H148          4.1654000000      0.5739000000     -0.3687000000 
   
  principal moments of inertia:
        amu*angstrom^2:    22347.52126    24247.84598    32483.81695
                g*cm^2: 3.71089275E-36 4.02644905E-36 5.39406404E-36
   
  rotational constants:
               cm^(-1):      0.00075434      0.00069522      0.00051895
                   GHz:      0.02261454      0.02084222      0.01555787
   
  Molecular weight:    1308.28 amu
   
  Stoichiometry: Si2C73PN4H56S2O7F3
[running at reduced cpu priority]
  Molecular Point Group: C1      
  Point Group used: C1
  
  nuclear repulsion energy.......   20753.590819652 hartrees
 
 Non-default options chosen:
   SCF calculation type: DFT(m06-2x)                 
   DFT=M06-2X
   Solvation energy will be computed using PBF
     -solute cavity energy will not be included
     -surface area terms will not be included
   Highest accuracy cutoffs used in SCF
   Solvent: other                                                           
   Internal dielectric constant:    1.000
   Continuum dielectric constant:   2.380
   Solvent probe molecule radius:   2.760
  
 Temporary integer options set:
     73=  2
  
  atom       vdw   vdw2    cov     mass  grid  daf  charge   basis
  C1        1.949  1.900  0.770   12.000    Y    Y      Y    6-31g**
  C2        1.949  1.900  0.770   12.000    Y    Y      Y    6-31g**
  C3        1.949  1.900  0.770   12.000    Y    Y      Y    6-31g**
  C4        1.949  1.900  0.770   12.000    Y    Y      Y    6-31g**
  C5        1.949  1.900  0.770   12.000    Y    Y      Y    6-31g**
  C6        1.949  1.900  0.770   12.000    Y    Y      Y    6-31g**
  C7        1.949  1.900  0.770   12.000    Y    Y      Y    6-31g**
  C8        1.949  1.900  0.770   12.000    Y    Y      Y    6-31g**
  C9        1.949  1.900  0.770   12.000    Y    Y      Y    6-31g**
  C10       1.949  1.900  0.770   12.000    Y    Y      Y    6-31g**
  C11       1.949  1.900  0.770   12.000    Y    Y      Y    6-31g**
  O12       1.702  1.600  0.730   15.995    Y    Y      Y    6-31g**
  Si13      2.217  2.147  1.110   27.977    Y    Y      Y    6-31g**
  C14       1.949  1.900  0.770   12.000    Y    Y      Y    6-31g**
  C15       1.949  1.900  0.770   12.000    Y    Y      Y    6-31g**
  C16       1.949  1.900  0.770   12.000    Y    Y      Y    6-31g**
  C17       1.949  1.900  0.770   12.000    Y    Y      Y    6-31g**
  C18       1.949  1.900  0.770   12.000    Y    Y      Y    6-31g**
  C19       1.949  1.900  0.770   12.000    Y    Y      Y    6-31g**
  C20       1.949  1.900  0.770   12.000    Y    Y      Y    6-31g**
  Si21      2.217  2.147  1.110   27.977    Y    Y      Y    6-31g**
  O22       1.702  1.600  0.730   15.995    Y    Y      Y    6-31g**
  C23       1.949  1.900  0.770   12.000    Y    Y      Y    6-31g**
  C24       1.949  1.900  0.770   12.000    Y    Y      Y    6-31g**
  P25       2.147  2.074  1.060   30.974    Y    Y      Y    6-31g**
  O26       1.702  1.600  0.730   15.995    Y    Y      Y    6-31g**
  N27       1.831  1.600  0.750   14.003    Y    Y      Y    6-31g**
  C28       1.949  1.900  0.770   12.000    Y    Y      Y    6-31g**
  C29       1.949  1.900  0.770   12.000    Y    Y      Y    6-31g**
  C30       1.949  1.900  0.770   12.000    Y    Y      Y    6-31g**
  C31       1.949  1.900  0.770   12.000    Y    Y      Y    6-31g**
  C32       1.949  1.900  0.770   12.000    Y    Y      Y    6-31g**
  C33       1.949  1.900  0.770   12.000    Y    Y      Y    6-31g**
  C34       1.949  1.900  0.770   12.000    Y    Y      Y    6-31g**
  C35       1.949  1.900  0.770   12.000    Y    Y      Y    6-31g**
  C36       1.949  1.900  0.770   12.000    Y    Y      Y    6-31g**
  C37       1.949  1.900  0.770   12.000    Y    Y      Y    6-31g**
  C38       1.949  1.900  0.770   12.000    Y    Y      Y    6-31g**
  C39       1.949  1.900  0.770   12.000    Y    Y      Y    6-31g**
  C40       1.949  1.900  0.770   12.000    Y    Y      Y    6-31g**
  C41       1.949  1.900  0.770   12.000    Y    Y      Y    6-31g**
  C42       1.949  1.900  0.770   12.000    Y    Y      Y    6-31g**
  C43       1.949  1.900  0.770   12.000    Y    Y      Y    6-31g**
  C44       1.949  1.900  0.770   12.000    Y    Y      Y    6-31g**
  C45       1.949  1.900  0.770   12.000    Y    Y      Y    6-31g**
  C46       1.949  1.900  0.770   12.000    Y    Y      Y    6-31g**
  C47       1.949  1.900  0.770   12.000    Y    Y      Y    6-31g**
  C48       1.949  1.900  0.770   12.000    Y    Y      Y    6-31g**
  C49       1.949  1.900  0.770   12.000    Y    Y      Y    6-31g**
  C50       1.949  1.900  0.770   12.000    Y    Y      Y    6-31g**
  C51       1.949  1.900  0.770   12.000    Y    Y      Y    6-31g**
  C52       1.949  1.900  0.770   12.000    Y    Y      Y    6-31g**
  C53       1.949  1.900  0.770   12.000    Y    Y      Y    6-31g**
  C54       1.949  1.900  0.770   12.000    Y    Y      Y    6-31g**
  C55       1.949  1.900  0.770   12.000    Y    Y      Y    6-31g**
  C56       1.949  1.900  0.770   12.000    Y    Y      Y    6-31g**
  C57       1.949  1.900  0.770   12.000    Y    Y      Y    6-31g**
  C58       1.949  1.900  0.770   12.000    Y    Y      Y    6-31g**
  C59       1.949  1.900  0.770   12.000    Y    Y      Y    6-31g**
  C60       1.949  1.900  0.770   12.000    Y    Y      Y    6-31g**
  C61       1.949  1.900  0.770   12.000    Y    Y      Y    6-31g**
  C62       1.949  1.900  0.770   12.000    Y    Y      Y    6-31g**
  C63       1.949  1.900  0.770   12.000    Y    Y      Y    6-31g**
  C64       1.949  1.900  0.770   12.000    Y    Y      Y    6-31g**
  C65       1.949  1.900  0.770   12.000    Y    Y      Y    6-31g**
  C66       1.949  1.900  0.770   12.000    Y    Y      Y    6-31g**
  C67       1.949  1.900  0.770   12.000    Y    Y      Y    6-31g**
  C68       1.949  1.900  0.770   12.000    Y    Y      Y    6-31g**
  C69       1.949  1.900  0.770   12.000    Y    Y      Y    6-31g**
  C70       1.949  1.900  0.770   12.000    Y    Y      Y    6-31g**
  N71       1.831  1.600  0.750   14.003    Y    Y      Y    6-31g**
  S72       2.070  1.900  1.020   31.972    Y    Y      Y    6-31g**
  O73       1.702  1.600  0.730   15.995    Y    Y      Y    6-31g**
  O74       1.702  1.600  0.730   15.995    Y    Y      Y    6-31g**
  C75       1.949  1.900  0.770   12.000    Y    Y      Y    6-31g**
  C76       1.949  1.900  0.770   12.000    Y    Y      Y    6-31g**
  C77       1.949  1.900  0.770   12.000    Y    Y      Y    6-31g**
  C78       1.949  1.900  0.770   12.000    Y    Y      Y    6-31g**
  C79       1.949  1.900  0.770   12.000    Y    Y      Y    6-31g**
  N80       1.831  1.600  0.750   14.003    Y    Y      Y    6-31g**
  N81       1.831  1.600  0.750   14.003    Y    Y      Y    6-31g**
  C82       1.949  1.900  0.770   12.000    Y    Y      Y    6-31g**
  C83       1.949  1.900  0.770   12.000    Y    Y      Y    6-31g**
  C84       1.949  1.900  0.770   12.000    Y    Y      Y    6-31g**
  C85       1.949  1.900  0.770   12.000    Y    Y      Y    6-31g**
  H86       1.597  1.150  0.320    1.008    Y    Y      Y    6-31g**
  H87       1.597  1.150  0.320    1.008    Y    Y      Y    6-31g**
  H88       1.597  1.150  0.320    1.008    Y    Y      Y    6-31g**
  H89       1.597  1.150  0.320    1.008    Y    Y      Y    6-31g**
  H90       1.597  1.150  0.320    1.008    Y    Y      Y    6-31g**
  H91       1.597  1.150  0.320    1.008    Y    Y      Y    6-31g**
  H92       1.597  1.150  0.320    1.008    Y    Y      Y    6-31g**
  H93       1.597  1.150  0.320    1.008    Y    Y      Y    6-31g**
  H94       1.597  1.150  0.320    1.008    Y    Y      Y    6-31g**
  H95       1.597  1.150  0.320    1.008    Y    Y      Y    6-31g**
  H96       1.597  1.150  0.320    1.008    Y    Y      Y    6-31g**
  H97       1.597  1.150  0.320    1.008    Y    Y      Y    6-31g**
  H98       1.597  1.150  0.320    1.008    Y    Y      Y    6-31g**
  H99       1.597  1.150  0.320    1.008    Y    Y      Y    6-31g**
  H100      1.597  1.150  0.320    1.008    Y    Y      Y    6-31g**
  H101      1.597  1.150  0.320    1.008    Y    Y      Y    6-31g**
  H102      1.597  1.150  0.320    1.008    Y    Y      Y    6-31g**
  H103      1.597  1.150  0.320    1.008    Y    Y      Y    6-31g**
  H104      1.597  1.150  0.320    1.008    Y    Y      Y    6-31g**
  H105      1.597  1.150  0.320    1.008    Y    Y      Y    6-31g**
  H106      1.597  1.150  0.320    1.008    Y    Y      Y    6-31g**
  H107      1.597  1.150  0.320    1.008    Y    Y      Y    6-31g**
  H108      1.597  1.150  0.320    1.008    Y    Y      Y    6-31g**
  H109      1.597  1.150  0.320    1.008    Y    Y      Y    6-31g**
  H110      1.597  1.150  0.320    1.008    Y    Y      Y    6-31g**
  H111      1.597  1.150  0.320    1.008    Y    Y      Y    6-31g**
  H112      1.597  1.150  0.320    1.008    Y    Y      Y    6-31g**
  H113      1.597  1.150  0.320    1.008    Y    Y      Y    6-31g**
  H114      1.597  1.150  0.320    1.008    Y    Y      Y    6-31g**
  H115      1.597  1.150  0.320    1.008    Y    Y      Y    6-31g**
  H116      1.597  1.150  0.320    1.008    Y    Y      Y    6-31g**
  H117      1.597  1.150  0.320    1.008    Y    Y      Y    6-31g**
  H118      1.597  1.150  0.320    1.008    Y    Y      Y    6-31g**
  H119      1.597  1.150  0.320    1.008    Y    Y      Y    6-31g**
  H120      1.597  1.150  0.320    1.008    Y    Y      Y    6-31g**
  H121      1.597  1.150  0.320    1.008    Y    Y      Y    6-31g**
  H122      1.597  1.150  0.320    1.008    Y    Y      Y    6-31g**
  H123      1.597  1.150  0.320    1.008    Y    Y      Y    6-31g**
  H124      1.597  1.150  0.320    1.008    Y    Y      Y    6-31g**
  H125      1.597  1.150  0.320    1.008    Y    Y      Y    6-31g**
  H126      1.597  1.150  0.320    1.008    Y    Y      Y    6-31g**
  H127      1.597  1.150  0.320    1.008    Y    Y      Y    6-31g**
  H128      1.597  1.150  0.320    1.008    Y    Y      Y    6-31g**
  H129      1.597  1.150  0.320    1.008    Y    Y      Y    6-31g**
  H130      1.597  1.150  0.320    1.008    Y    Y      Y    6-31g**
  H131      1.597  1.150  0.320    1.008    Y    Y      Y    6-31g**
  H132      1.597  1.150  0.320    1.008    Y    Y      Y    6-31g**
  H133      1.597  1.150  0.320    1.008    Y    Y      Y    6-31g**
  H134      1.597  1.150  0.320    1.008    Y    Y      Y    6-31g**
  H135      1.597  1.150  0.320    1.008    Y    Y      Y    6-31g**
  H136      1.597  1.150  0.320    1.008    Y    Y      Y    6-31g**
  H137      1.597  1.150  0.320    1.008    Y    Y      Y    6-31g**
  H138      1.597  1.150  0.320    1.008    Y    Y      Y    6-31g**
  H139      1.597  1.150  0.320    1.008    Y    Y      Y    6-31g**
  H140      1.597  1.150  0.320    1.008    Y    Y      Y    6-31g**
  S141      2.070  1.900  1.020   31.972    Y    Y      Y    6-31g**
  O142      1.702  1.600  0.730   15.995    Y    Y      Y    6-31g**
  C143      1.949  1.900  0.770   12.000    Y    Y      Y    6-31g**
  O144      1.702  1.600  0.730   15.995    Y    Y      Y    6-31g**
  F145      1.736  1.682  0.720   18.998    Y    Y      Y    6-31g**
  F146      1.736  1.682  0.720   18.998    Y    Y      Y    6-31g**
  F147      1.736  1.682  0.720   18.998    Y    Y      Y    6-31g**
  H148      1.597  1.150  0.320    1.008    Y    Y      Y    6-31g**
  
  Peak memory usage:    768 Mb
  
  end of program pre
   
 Time(pre)  user:        0.8  user+sys:        0.8  wallclock:        3.5
  
  start of program onee
  
  smallest eigenvalue of S:    2.213E-04
  number of canonical orbitals.....         1672
  Peak memory usage:    900 Mb
  
  end of program onee
   
 Time(onee)  user:       17.8  user+sys:       17.8  wallclock:       52.0
  
  start of program hfig
  
  initial wavefunction generated automatically from atomic wavefunctions
 
  Irreducible     Total no   No of occupied orbitals 
  representation  orbitals   Shell_1  Shell_2    ...
  No Symm         1672        340
  ------------------------
  Orbital occupation/shell    1.000
 
  Peak memory usage:    833 Mb
  
  end of program hfig
   
 Time(hfig)  user:       30.3  user+sys:       30.3  wallclock:       82.2
  
  start of program probe
  
  Peak memory usage:    826 Mb
  
  end of program probe
   
 Time(probe)  user:       20.1  user+sys:       20.1  wallclock:       62.0
  
  start of program grid
  
   grid     grid set  grid #  grid sym
  ------    --------  ------  --------
  coarse        0        0        1
  medium        2        1        1
  fine          0        0        1
  ultrafine     4        2        1
  charge       -1        3        1
  gradient      4        2        1
  density       0        0        1
  DFT-fine    -13        4        1
  DFT-med.    -13        4        1
  DFT-grad    -13        4        1
  DFT-der2      0        0        1
  DFT-cphf      0        0        1
  LMP2-enrg     4        2        1
  LMP2-grad     2        1        1
  DFT-cphf2     0        0        1
  PBF-dens      0        0        1
  plotting      0        0        1
  Rel-grad    -17        0        1
  
  number of gridpoints: 
     atom        C1       C2       C3       C4       C5       C6       C7
  grid # 1       97      101       94      101      100       96       93
  grid # 2      338      360      337      366      357      335      336
  grid # 3       36       28       41       44       16       48       23
  grid # 4    48124    48124    48124    48124    48124    48124    48124
   
  number of gridpoints: 
     atom        C8       C9      C10      C11      O12     Si13      C14
  grid # 1       94       97      100      101      111      472      101
  grid # 2      336      359      355      359      438      472      357
  grid # 3       49       21       12       12       47        8       28
  grid # 4    48124    48124    48124    48124    47716    38542    48124
   
  number of gridpoints: 
     atom       C15      C16      C17      C18      C19      C20     Si21
  grid # 1       97      101       97       93       98      100      467
  grid # 2      357      366      336      332      339      359      467
  grid # 3       23       39       28       19       44        7        9
  grid # 4    48124    48124    48124    48124    48124    48124    38542
   
  number of gridpoints: 
     atom       O22      C23      C24      P25      O26      N27      C28
  grid # 1      112       94       94      445      115      109      102
  grid # 2      440      339      338      445      457      404      359
  grid # 3       60       42       47        7       42       20       20
  grid # 4    47716    48124    48124    38640    47716    47928    48124
   
  number of gridpoints: 
     atom       C29      C30      C31      C32      C33      C34      C35
  grid # 1      100       99      100      100      100       94       96
  grid # 2      359      359      358      361      359      334      340
  grid # 3       20        8        8       19       16       27       32
  grid # 4    48124    48124    48124    48124    48124    48124    48124
   
  number of gridpoints: 
     atom       C36      C37      C38      C39      C40      C41      C42
  grid # 1       93       96       92       94       92       94       93
  grid # 2      336      336      333      328      332      330      338
  grid # 3       23       23       17       10       19       11       35
  grid # 4    48124    48124    48124    48124    48124    48124    48124
   
  number of gridpoints: 
     atom       C43      C44      C45      C46      C47      C48      C49
  grid # 1       95       93       95       94       94       94       93
  grid # 2      336      334      333      336      336      337      332
  grid # 3       25       32       18       41       46       44       27
  grid # 4    48124    48124    48124    48124    48124    48124    48124
   
  number of gridpoints: 
     atom       C50      C51      C52      C53      C54      C55      C56
  grid # 1       94       94       93       93       92       93       93
  grid # 2      334      335      331      331      332      330      333
  grid # 3       29       33       25       25       18       28       32
  grid # 4    48124    48124    48124    48124    48124    48124    48124
   
  number of gridpoints: 
     atom       C57      C58      C59      C60      C61      C62      C63
  grid # 1       92       94       94       94       93       93       92
  grid # 2      333      336      336      336      335      332      333
  grid # 3       22       45       49       43       37       33       22
  grid # 4    48124    48124    48124    48124    48124    48124    48124
   
  number of gridpoints: 
     atom       C64      C65      C66      C67      C68      C69      C70
  grid # 1       96       96      101       96       96       96       91
  grid # 2      330      332      361      331      330      329      315
  grid # 3       32       33       25       29       29       29        6
  grid # 4    48124    48124    48124    48124    48124    48124    48124
   
  number of gridpoints: 
     atom       N71      S72      O73      O74      C75      C76      C77
  grid # 1      100      436      123      120       98       96       96
  grid # 2      354      436      509      475      357      328      330
  grid # 3       25        9      328      163       26       32       30
  grid # 4    47928    48492    47716    47716    48124    48124    48124
   
  number of gridpoints: 
     atom       C78      C79      N80      N81      C82      C83      C84
  grid # 1       96       96      113       98       93       92       93
  grid # 2      330      338      422      342      327      329      330
  grid # 3       29       30      116       11       11       17       14
  grid # 4    48124    48124    47928    47928    48124    48124    48124
   
  number of gridpoints: 
     atom       C85      H86      H87      H88      H89      H90      H91
  grid # 1       91      112      118      117      108      118      115
  grid # 2      313      434      451      446      428      453      436
  grid # 3        6      236      418      361      195      425      259
  grid # 4    48124    48426    48426    48426    48426    48426    48426
   
  number of gridpoints: 
     atom       H92      H93      H94      H95      H96      H97      H98
  grid # 1      112      118      118      118      109      112      109
  grid # 2      430      444      450      450      426      431      429
  grid # 3      214      365      410      417      208      222      203
  grid # 4    48426    48426    48426    48426    48426    48426    48426
   
  number of gridpoints: 
     atom       H99     H100     H101     H102     H103     H104     H105
  grid # 1      107      111      112      110      112      110      111
  grid # 2      414      427      429      424      430      430      426
  grid # 3       99      202      230      153      223      226      202
  grid # 4    48426    48426    48426    48426    48426    48426    48426
   
  number of gridpoints: 
     atom      H106     H107     H108     H109     H110     H111     H112
  grid # 1      111      104      118      118      118      117      113
  grid # 2      429      414      451      453      453      451      429
  grid # 3      211       71      418      424      423      392      194
  grid # 4    48426    48426    48426    48426    48426    48426    48426
   
  number of gridpoints: 
     atom      H113     H114     H115     H116     H117     H118     H119
  grid # 1      107      116      115      117      115      117      116
  grid # 2      421      446      444      449      445      452      446
  grid # 3      120      326      330      360      336      399      345
  grid # 4    48426    48426    48426    48426    48426    48426    48426
   
  number of gridpoints: 
     atom      H120     H121     H122     H123     H124     H125     H126
  grid # 1      118      118      118      117      115      106      118
  grid # 2      452      453      453      449      442      421      450
  grid # 3      418      424      421      382      315      127      408
  grid # 4    48426    48426    48426    48426    48426    48426    48426
   
  number of gridpoints: 
     atom      H127     H128     H129     H130     H131     H132     H133
  grid # 1      111      106      111      117      104      110      115
  grid # 2      436      416      426      449      422      431      448
  grid # 3      245      127      167      389      176      228      357
  grid # 4    48426    48426    48426    48426    48426    48426    48426
   
  number of gridpoints: 
     atom      H134     H135     H136     H137     H138     H139     H140
  grid # 1      117      117      103      106      115      116      104
  grid # 2      451      452      393      409      447      449      419
  grid # 3      406      428       48       93      303      349      147
  grid # 4    48426    48426    48426    48426    48426    48426    48426
   
  number of gridpoints: 
     atom      S141     O142     C143     O144     F145     F146     F147
  grid # 1      440      114       90      117      527      524      518
  grid # 2      440      439      319      476      527      524      518
  grid # 3        7       22        7       87      205      114      122
  grid # 4    48492    47716    48124    47716    47062    47062    47062
   
  number of gridpoints: 
     atom      H148    total
  grid # 1      100    18351
  grid # 2      392    57779
  grid # 3       52    18983
  grid # 4    48426  7104526
   
  Peak memory usage:    795 Mb
  
  end of program grid
   
 Time(grid)  user:     1162.4  user+sys:     1162.4  wallclock:     3619.4
  
  start of program rwr
  
  Peak memory usage:    814 Mb
  
  end of program rwr
   
 Time(rwr)  user:       74.8  user+sys:       74.8  wallclock:      248.1
  
  start of program scf
  
 number of electrons..........        680
 number of alpha electrons....        340
 number of beta electrons.....        340
 number of orbitals, total....       1672
 number of doubly-occ'd orbs..        340
 number of open shell orbs....          0
 number of occupied orbitals..        340
 number of virtual orbitals...       1332
 number of hamiltonians.......          1
 number of shells.............          1
 SCF type: DFT=M06-2X
 Energy computed with NOPS off.
  
       i  u  d  i  g                   
       t  p  i  c  r                                 RMS    maximum
       e  d  i  u  i                       energy  density   DIIS  
       r  t  s  t  d       total energy    change  change    error 
  
etot    1  N  N  1  U   -5562.72619498367           4.2E-03  1.1E-01
etot    2  N  Y  1  U   -5527.12815575144 -3.6E+01  1.4E-02  2.0E-01
etot    3  N  Y  1  U   -5324.88558999764 -2.0E+02  1.4E-02  3.2E-01
etot    4  N  Y  1  U   -5571.85400372962  2.5E+02  5.7E-03  5.3E-02
etot    5  N  Y  1  U   -5544.39182115528 -2.7E+01  5.3E-03  1.3E-01
etot    6  N  Y  1  U   -5575.21401531407  3.1E+01  6.6E-04  2.6E-02
etot    7  N  Y  1  U   -5575.42736763752  2.1E-01  2.8E-04  2.2E-02
etot    8  N  Y  1  U   -5575.57058269850  1.4E-01  8.4E-05  3.8E-03
etot    9  N  Y  1  U   -5575.57885582269  8.3E-03  2.9E-05  1.3E-03
etot   10  N  Y  1  U   -5575.58011370499  1.3E-03  1.1E-05  5.3E-04
etot   11  N  Y  1  U   -5575.58026748449  1.5E-04  5.1E-06  2.3E-04
etot   12  N  N  1  U   -5575.58029881817  3.1E-05  0.0E+00  0.0E+00
  
  
 Energy components, in hartrees:
   (A)  Nuclear repulsion............   20753.59081965232
   (E)  Total one-electron terms.....  -49034.53620602596
   (F)    Electron-nuclear...........  -54570.56349186836
   (H)    Kinetic....................    5536.02728584242
   (I)  Total two-electron terms.....   22705.36508755548
   (J)    Coulomb....................   23356.67154000825
   (K)    Exchange+Correlation.......    -651.30645245278
   (L)  Electronic energy............  -26329.17111847049  (E+I)
   (M)  -V/T.........................       2.00714465644  (-(A+F+I)/H)
   (N)  Total energy.................   -5575.58029881817  (A+L)
   (O)  Gas phase energy.............   -5575.58029881817
  
 SCFE: SCF energy: DFT(m06-2x)     -5575.58029881817 hartrees   iterations:  12
  
 
 HOMO energy:    -0.25257
 LUMO energy:    -0.06821
 
  Orbital energies (hartrees): 
   -90.16205   -90.15593   -78.20332   -67.01073   -67.00189   -25.28939
   -25.28815   -25.28480   -19.68101   -19.68096   -19.64412   -19.64028
   -19.63813   -19.62504   -19.59688   -14.85714   -14.79353   -14.78916
   -14.73757   -10.80354   -10.65738   -10.63674   -10.63629   -10.63211
   -10.62120   -10.62058   -10.61771   -10.60892   -10.60542   -10.59389
   -10.58985   -10.58533   -10.57133   -10.57101   -10.56800   -10.56730
   -10.56550   -10.56215   -10.56160   -10.55996   -10.55962   -10.55957
   -10.55844   -10.55718   -10.55691   -10.55507   -10.55507   -10.55433
   -10.55368   -10.55335   -10.55332   -10.55322   -10.55233   -10.55196
   -10.55172   -10.55133   -10.55132   -10.55089   -10.54940   -10.54938
   -10.54935   -10.54891   -10.54873   -10.54779   -10.54570   -10.54465
   -10.54392   -10.54379   -10.54337   -10.54275   -10.54223   -10.54192
   -10.54143   -10.54020   -10.53958   -10.53937   -10.53900   -10.53869
   -10.53851   -10.53739   -10.53733   -10.53710   -10.53678   -10.53632
   -10.53557   -10.53475   -10.53405   -10.53297   -10.52727   -10.52682
   -10.52139   -10.52096    -8.47297    -8.46416    -6.98265    -6.39491
    -6.39411    -6.39372    -6.38655    -6.38548    -6.38536    -5.54167
    -5.53272    -5.10095    -5.09988    -5.09896    -3.85146    -3.85127
    -3.85087    -3.84250    -3.84222    -3.84204    -1.45392    -1.36384
    -1.36180    -1.23379    -1.22423    -1.21682    -1.17717    -1.14488
    -1.11733    -1.10415    -1.08307    -1.08109    -1.04725    -0.99179
    -0.97997    -0.96584    -0.96201    -0.95102    -0.94405    -0.93852
    -0.93715    -0.93405    -0.93192    -0.92949    -0.92796    -0.92065
    -0.90881    -0.90713    -0.88848    -0.88804    -0.85574    -0.85254
    -0.84593    -0.84287    -0.84197    -0.83846    -0.83669    -0.83456
    -0.83199    -0.83068    -0.82688    -0.82601    -0.82474    -0.82437
    -0.82348    -0.82193    -0.82150    -0.81870    -0.81508    -0.79868
    -0.79866    -0.76304    -0.75664    -0.74072    -0.72976    -0.72175
    -0.71243    -0.70732    -0.70095    -0.69851    -0.69724    -0.68863
    -0.68767    -0.68597    -0.68205    -0.68091    -0.67896    -0.67806
    -0.67585    -0.67460    -0.67417    -0.66823    -0.66695    -0.66482
    -0.66386    -0.66124    -0.65941    -0.65800    -0.65642    -0.65030
    -0.64687    -0.64361    -0.63324    -0.62192    -0.60979    -0.60885
    -0.59956    -0.59744    -0.59542    -0.59178    -0.58579    -0.58205
    -0.57929    -0.57709    -0.57361    -0.57329    -0.57262    -0.56917
    -0.56846    -0.56002    -0.55953    -0.55901    -0.55555    -0.55108
    -0.54769    -0.54588    -0.54201    -0.53938    -0.53627    -0.53410
    -0.52957    -0.52672    -0.52671    -0.52530    -0.52319    -0.52290
    -0.52078    -0.51680    -0.51473    -0.51389    -0.51137    -0.50993
    -0.50856    -0.50817    -0.50725    -0.50464    -0.50290    -0.50138
    -0.49809    -0.49749    -0.49606    -0.49515    -0.49412    -0.49340
    -0.49279    -0.49113    -0.49087    -0.48972    -0.48815    -0.48714
    -0.48538    -0.48524    -0.48340    -0.48265    -0.47879    -0.47768
    -0.47489    -0.47236    -0.47165    -0.47114    -0.46609    -0.46266
    -0.46192    -0.45497    -0.45147    -0.45033    -0.44876    -0.44690
    -0.44503    -0.43794    -0.43516    -0.43108    -0.42974    -0.42796
    -0.42654    -0.42447    -0.42152    -0.41818    -0.41779    -0.41727
    -0.41293    -0.41250    -0.40743    -0.40491    -0.40286    -0.40169
    -0.39992    -0.39957    -0.39859    -0.39716    -0.39340    -0.39328
    -0.38820    -0.38778    -0.38708    -0.38655    -0.38149    -0.38114
    -0.37939    -0.37851    -0.37743    -0.37593    -0.37264    -0.36823
    -0.36527    -0.36447    -0.36038    -0.35360    -0.34909    -0.34496
    -0.34391    -0.34262    -0.33956    -0.33923    -0.33613    -0.33252
    -0.33117    -0.32908    -0.32572    -0.32382    -0.30811    -0.30439
    -0.30325    -0.30230    -0.30060    -0.29884    -0.29600    -0.29443
    -0.28985    -0.28866    -0.28769    -0.28467    -0.28361    -0.28336
    -0.28276    -0.27998    -0.27229    -0.25257    -0.06821    -0.02209
    -0.01823    -0.00426    -0.00131     0.01191     0.01624     0.01780
     0.02166     0.02321
 
  Peak memory usage:   1028 Mb
  
  end of program scf
   
 Time(scf)  user:    32872.3  user+sys:    32872.3  wallclock:   103732.6
  
  start of program ch
  
  gridpoints used for charge fit        16439
    out of a possible maximum of        18983
  
   Electrostatic potential fitting constrained to reproduce
     total charge:                yes
     dipole moment:               no 
     traceless quadrupole moment: no 
     traceless octapole moment:   no 
  
  Atomic charges from electrostatic potential: 
   
 Atom       C1           C2           C3           C4           C5      
 Charge   -0.12092      0.03262     -0.18189      0.16874     -0.00632
   
 Atom       C6           C7           C8           C9           C10     
 Charge   -0.22903     -0.31135     -0.09401      0.12981     -0.26612
   
 Atom       C11          O12          Si13         C14          C15     
 Charge    0.02836     -0.22416     -0.11920      0.13141      0.35007
   
 Atom       C16          C17          C18          C19          C20     
 Charge    0.24186     -0.15627     -0.41034     -0.25890     -0.01084
   
 Atom       Si21         O22          C23          C24          P25     
 Charge   -0.05508     -0.30944     -0.16934     -0.09600      0.85120
   
 Atom       O26          N27          C28          C29          C30     
 Charge   -0.47965     -0.65964      0.17610     -0.01401      0.08059
   
 Atom       C31          C32          C33          C34          C35     
 Charge   -0.03512     -0.04420      0.17637     -0.20038     -0.18649
   
 Atom       C36          C37          C38          C39          C40     
 Charge   -0.15121      0.08129     -0.08341     -0.03577     -0.01603
   
 Atom       C41          C42          C43          C44          C45     
 Charge    0.01522      0.01877     -0.08691     -0.21640     -0.28963
   
 Atom       C46          C47          C48          C49          C50     
 Charge   -0.11974     -0.14701     -0.11667     -0.17371     -0.07072
   
 Atom       C51          C52          C53          C54          C55     
 Charge   -0.21962     -0.17619     -0.11053     -0.19546     -0.26415
   
 Atom       C56          C57          C58          C59          C60     
 Charge   -0.04122     -0.20671     -0.22525     -0.08178     -0.16983
   
 Atom       C61          C62          C63          C64          C65     
 Charge   -0.12173     -0.14833      0.02031     -0.03331     -0.23450
   
 Atom       C66          C67          C68          C69          C70     
 Charge    0.06375     -0.17113      0.01313     -0.24191      0.37523
   
 Atom       N71          S72          O73          O74          C75     
 Charge   -0.68377      0.61251     -0.39966     -0.46636      0.59427
   
 Atom       C76          C77          C78          C79          N80     
 Charge   -0.46771      0.18137     -0.41213      0.34831     -0.55473
   
 Atom       N81          C82          C83          C84          C85     
 Charge   -0.03355      0.18631     -0.13739     -0.28261      0.04933
   
 Atom       H86          H87          H88          H89          H90     
 Charge    0.12491      0.14692      0.14275      0.17768      0.12970
   
 Atom       H91          H92          H93          H94          H95     
 Charge    0.12943      0.21035      0.15365      0.14403      0.12739
   
 Atom       H96          H97          H98          H99          H100    
 Charge    0.13650      0.10605      0.14931     -0.02336      0.11315
   
 Atom       H101         H102         H103         H104         H105    
 Charge    0.10381      0.12010      0.07580      0.05802      0.11541
   
 Atom       H106         H107         H108         H109         H110    
 Charge    0.13823      0.20242      0.12859      0.13281      0.13126
   
 Atom       H111         H112         H113         H114         H115    
 Charge    0.13619      0.09552      0.11991      0.14146      0.11896
   
 Atom       H116         H117         H118         H119         H120    
 Charge    0.12442      0.15948      0.11564      0.12535      0.14712
   
 Atom       H121         H122         H123         H124         H125    
 Charge    0.12127      0.13043      0.12939      0.10358      0.01710
   
 Atom       H126         H127         H128         H129         H130    
 Charge    0.11655      0.10998      0.13551      0.08946      0.15327
   
 Atom       H131         H132         H133         H134         H135    
 Charge    0.06662      0.21976      0.10432      0.19156      0.07465
   
 Atom       H136         H137         H138         H139         H140    
 Charge    0.22926      0.09681      0.16879      0.21425      0.16330
   
 Atom       S141         O142         C143         O144         F145    
 Charge    0.75782     -0.44155      0.41862     -0.41815     -0.13434
   
 Atom       F146         F147         H148    
 Charge   -0.15865     -0.11170      0.29164
  
  sum of atomic charges:    -0.000000
   
 RMS Error   1.02E-03 hartrees
 
  Peak memory usage:    816 Mb
  
  end of program ch
   
 Time(ch)  user:       18.9  user+sys:       18.9  wallclock:       58.6
  
  start of program post
  
  Writing input files for PBF
  Peak memory usage:    759 Mb
  
  end of program post
   
 Time(post)  user:        0.9  user+sys:        0.9  wallclock:        3.1

  start of program pbf

Pbf Version 4.10

Molecular surface area:      844.28607   [A2]
Reaction field energy:       -21.06055   [kT]
  Peak memory usage: 721 Mb

  end of program pbf

 Time(pbf)  user:        8.4  user+sys:        8.5  wallclock:       25.3
  
  start of program solv
  
   number of surface charges from PBF   13354
   sum of surface charges     -0.00022
   
  nuclear repulsion energy.......   20753.590819652 hartrees
  Peak memory usage:    894 Mb
  
  end of program solv
   
 Time(solv)  user:       37.5  user+sys:       37.5  wallclock:      119.7
  
  start of program scf
  
 Energy computed with NOPS off.
  
       i  u  d  i  g                   
       t  p  i  c  r                                 RMS    maximum
       e  d  i  u  i                       energy  density   DIIS  
       r  t  s  t  d       total energy    change  change    error 
  
etot    1  N  N  1  U   -5575.62346976420           6.3E-05  1.1E-03
etot    2  N  Y  1  U   -5575.62453095147  1.1E-03  1.9E-05  8.4E-04
etot    3  N  Y  1  U   -5575.62487855672  3.5E-04  5.9E-06  4.5E-04
etot    4  N  Y  1  U   -5575.62494421818  6.6E-05  2.4E-06  1.3E-04
etot    5  N  N  1  U   -5575.62495087105  6.7E-06  0.0E+00  0.0E+00
  
  
 Energy components, in hartrees:
   (A)  Total zero-electron terms....   20756.31790086170
   (B)    Nuclear-nuclear............   20753.59081965232
   (C)    Nuclear-solvent............       2.72708120939
   (E)  Total one-electron terms.....  -49038.86330352974
   (F)    Electron-nuclear...........  -54572.19324423576
   (G)    Electron-solvent...........      -2.77321255591
   (H)    Kinetic....................    5536.10315326193
   (I)  Total two-electron terms.....   22706.92045179698
   (J)    Coulomb....................   23358.25327088439
   (K)    Exchange+Correlation.......    -651.33281908740
   (L)  Electronic energy............  -26331.94285173275  (E+I)
   (N)  Total quantum mech. energy...   -5575.62495087105  (A+L)
   (O)  Gas phase energy.............   -5575.58029881817
   (P)  Solution phase energy........   -5575.60188519779  (Q+R+S)
   (Q)    Total solute energy........   -5575.57881952452  (N-C-G)
   (R)    Total solvent energy.......      -0.02306567326  (C/2+G/2)
   (S)    Solute cavity energy.......       0.00000000000
   (U)  Reorganization energy........       0.00147929364  (Q-O)
   (V)  Solvation energy.............      -0.02158637962  (P-O)
  
 SCFE:  Solution phase energy: DFT(m06-2x)      -5575.60188519779 hartrees
        SCF iterations:   5
  
 
 HOMO energy:    -0.25442
 LUMO energy:    -0.06477
 
  Orbital energies (hartrees): 
   -90.17057   -90.15967   -78.20552   -67.01249   -67.00535   -25.29227
   -25.29178   -25.28842   -19.68376   -19.68333   -19.65092   -19.64879
   -19.64333   -19.62744   -19.59854   -14.85474   -14.79960   -14.79081
   -14.74055   -10.80712   -10.65448   -10.63663   -10.63469   -10.63394
   -10.62317   -10.62005   -10.61478   -10.60663   -10.59889   -10.59068
   -10.58892   -10.58155   -10.57299   -10.57188   -10.56908   -10.56902
   -10.56702   -10.56394   -10.56145   -10.56099   -10.56098   -10.55786
   -10.55719   -10.55699   -10.55602   -10.55596   -10.55473   -10.55460
   -10.55440   -10.55404   -10.55319   -10.55301   -10.55279   -10.55237
   -10.55220   -10.55218   -10.55187   -10.55132   -10.55052   -10.55052
   -10.55033   -10.54958   -10.54950   -10.54941   -10.54769   -10.54749
   -10.54719   -10.54608   -10.54562   -10.54498   -10.54413   -10.54407
   -10.54365   -10.54244   -10.54235   -10.54206   -10.54171   -10.54094
   -10.54069   -10.54045   -10.53956   -10.53906   -10.53877   -10.53779
   -10.53756   -10.53753   -10.53626   -10.53603   -10.53073   -10.53008
   -10.52525   -10.52458    -8.48139    -8.46779    -6.98488    -6.40329
    -6.40263    -6.40210    -6.39018    -6.38912    -6.38901    -5.54343
    -5.53617    -5.10318    -5.10211    -5.10118    -3.85321    -3.85302
    -3.85264    -3.84595    -3.84567    -3.84550    -1.45761    -1.36747
    -1.36549    -1.24282    -1.22699    -1.21965    -1.17956    -1.14248
    -1.12701    -1.10721    -1.08395    -1.08287    -1.05159    -0.99466
    -0.98178    -0.96748    -0.96278    -0.95044    -0.94583    -0.94177
    -0.93719    -0.93494    -0.93278    -0.93233    -0.92613    -0.92215
    -0.91031    -0.90716    -0.89028    -0.88692    -0.85519    -0.85384
    -0.84651    -0.84255    -0.84220    -0.84074    -0.83821    -0.83688
    -0.83360    -0.83278    -0.82893    -0.82876    -0.82724    -0.82637
    -0.82584    -0.82457    -0.82410    -0.82164    -0.81783    -0.80019
    -0.80000    -0.76523    -0.75751    -0.73902    -0.73052    -0.72061
    -0.71175    -0.70901    -0.70227    -0.69897    -0.69562    -0.69028
    -0.68756    -0.68614    -0.68435    -0.68194    -0.68139    -0.67873
    -0.67805    -0.67667    -0.67584    -0.67046    -0.66874    -0.66719
    -0.66497    -0.66332    -0.66093    -0.65943    -0.65875    -0.65287
    -0.64829    -0.64465    -0.63535    -0.62358    -0.61071    -0.60942
    -0.60158    -0.59865    -0.59747    -0.59382    -0.58525    -0.58188
    -0.58058    -0.57856    -0.57585    -0.57481    -0.57454    -0.57093
    -0.56851    -0.56295    -0.56077    -0.55913    -0.55836    -0.55233
    -0.54933    -0.54663    -0.54326    -0.53981    -0.53766    -0.53626
    -0.53153    -0.52856    -0.52793    -0.52747    -0.52411    -0.52245
    -0.52238    -0.51991    -0.51496    -0.51473    -0.51325    -0.51154
    -0.51020    -0.50849    -0.50704    -0.50595    -0.50362    -0.50228
    -0.50178    -0.49855    -0.49645    -0.49623    -0.49484    -0.49402
    -0.49361    -0.49289    -0.49179    -0.49064    -0.48869    -0.48718
    -0.48668    -0.48526    -0.48429    -0.48377    -0.48021    -0.47920
    -0.47696    -0.47417    -0.47346    -0.47271    -0.46693    -0.46355
    -0.46085    -0.45519    -0.45253    -0.45098    -0.45005    -0.44855
    -0.44690    -0.44014    -0.43746    -0.43269    -0.43149    -0.43001
    -0.42820    -0.42652    -0.42410    -0.42220    -0.42124    -0.41922
    -0.41659    -0.41527    -0.41124    -0.40802    -0.40649    -0.40359
    -0.40175    -0.40040    -0.39921    -0.39784    -0.39563    -0.39426
    -0.39320    -0.39183    -0.39002    -0.38877    -0.38414    -0.38352
    -0.38315    -0.38102    -0.37931    -0.37773    -0.37148    -0.36851
    -0.36741    -0.36455    -0.36237    -0.35578    -0.35125    -0.34774
    -0.34587    -0.34429    -0.34134    -0.33915    -0.33911    -0.33538
    -0.33423    -0.33201    -0.32951    -0.32618    -0.30775    -0.30528
    -0.30482    -0.30434    -0.30279    -0.29977    -0.29926    -0.29783
    -0.29233    -0.29159    -0.29097    -0.28787    -0.28658    -0.28649
    -0.28536    -0.28334    -0.27424    -0.25442    -0.06477    -0.02251
    -0.02010    -0.00334    -0.00274     0.01011     0.01390     0.01726
     0.01993     0.02170
 
  Peak memory usage:   1029 Mb
  
  end of program scf
   
 Time(scf)  user:    11543.6  user+sys:    11543.6  wallclock:    36459.1
  
  start of program sole
  
    SCRF                   solvation energy
  iteration          Hartrees            kcal/mol
     0               0.0000000            0.0000
     1              -0.0215864          -13.5457
  
  solvation energy not yet converged... 
  
  Peak memory usage:    813 Mb
  
  end of program sole
   
 Time(sole)  user:        0.2  user+sys:        0.2  wallclock:        0.5
  
  start of program ch
  
  gridpoints used for charge fit        16439
    out of a possible maximum of        16439
  
   Electrostatic potential fitting constrained to reproduce
     total charge:                yes
     dipole moment:               no 
     traceless quadrupole moment: no 
     traceless octapole moment:   no 
  
  Atomic charges from electrostatic potential: 
   
 Atom       C1           C2           C3           C4           C5      
 Charge   -0.12384      0.03168     -0.19169      0.17119     -0.00196
   
 Atom       C6           C7           C8           C9           C10     
 Charge   -0.23840     -0.32864     -0.09879      0.11041     -0.27225
   
 Atom       C11          O12          Si13         C14          C15     
 Charge    0.05633     -0.21380     -0.14801      0.13226      0.33336
   
 Atom       C16          C17          C18          C19          C20     
 Charge    0.24395     -0.16140     -0.42268     -0.26575      0.01532
   
 Atom       Si21         O22          C23          C24          P25     
 Charge   -0.07413     -0.29475     -0.17532     -0.10342      0.84370
   
 Atom       O26          N27          C28          C29          C30     
 Charge   -0.47373     -0.66063      0.17855     -0.01224      0.08991
   
 Atom       C31          C32          C33          C34          C35     
 Charge   -0.03207     -0.04622      0.18512     -0.20925     -0.18794
   
 Atom       C36          C37          C38          C39          C40     
 Charge   -0.15930      0.09225     -0.09168     -0.03601     -0.02094
   
 Atom       C41          C42          C43          C44          C45     
 Charge    0.02189      0.02019     -0.08704     -0.23944     -0.29875
   
 Atom       C46          C47          C48          C49          C50     
 Charge   -0.12505     -0.15489     -0.12639     -0.18635     -0.07044
   
 Atom       C51          C52          C53          C54          C55     
 Charge   -0.24287     -0.18343     -0.12240     -0.19794     -0.27744
   
 Atom       C56          C57          C58          C59          C60     
 Charge   -0.04579     -0.21677     -0.23737     -0.08802     -0.17882
   
 Atom       C61          C62          C63          C64          C65     
 Charge   -0.11697     -0.16365      0.01693     -0.03666     -0.24061
   
 Atom       C66          C67          C68          C69          C70     
 Charge    0.06348     -0.17410      0.00136     -0.24923      0.36393
   
 Atom       N71          S72          O73          O74          C75     
 Charge   -0.68389      0.63204     -0.42866     -0.48517      0.60187
   
 Atom       C76          C77          C78          C79          N80     
 Charge   -0.47539      0.19042     -0.41754      0.36191     -0.58763
   
 Atom       N81          C82          C83          C84          C85     
 Charge   -0.02308      0.16867     -0.13408     -0.28308      0.05670
   
 Atom       H86          H87          H88          H89          H90     
 Charge    0.12870      0.15602      0.14978      0.18599      0.13832
   
 Atom       H91          H92          H93          H94          H95     
 Charge    0.13401      0.21681      0.16086      0.15209      0.13552
   
 Atom       H96          H97          H98          H99          H100    
 Charge    0.14334      0.10631      0.15715     -0.02462      0.11328
   
 Atom       H101         H102         H103         H104         H105    
 Charge    0.10510      0.11999      0.07622      0.05737      0.11865
   
 Atom       H106         H107         H108         H109         H110    
 Charge    0.14593      0.20990      0.13660      0.14123      0.14013
   
 Atom       H111         H112         H113         H114         H115    
 Charge    0.14517      0.10034      0.12831      0.14921      0.13013
   
 Atom       H116         H117         H118         H119         H120    
 Charge    0.13135      0.16617      0.12376      0.13257      0.15607
   
 Atom       H121         H122         H123         H124         H125    
 Charge    0.12952      0.13839      0.13513      0.11191      0.02568
   
 Atom       H126         H127         H128         H129         H130    
 Charge    0.12465      0.11980      0.13261      0.09461      0.16078
   
 Atom       H131         H132         H133         H134         H135    
 Charge    0.07451      0.22426      0.11313      0.20207      0.08250
   
 Atom       H136         H137         H138         H139         H140    
 Charge    0.21574      0.11014      0.17824      0.22784      0.16238
   
 Atom       S141         O142         C143         O144         F145    
 Charge    0.76042     -0.43005      0.41437     -0.41986     -0.13599
   
 Atom       F146         F147         H148    
 Charge   -0.15831     -0.10943      0.28751
  
  sum of atomic charges:    -0.000000
   
 RMS Error   1.04E-03 hartrees
 
  Peak memory usage:    816 Mb
  
  end of program ch
   
 Time(ch)  user:       18.8  user+sys:       18.8  wallclock:       56.9
  
  start of program post
  
  Writing input files for PBF
  Peak memory usage:    759 Mb
  
  end of program post
   
 Time(post)  user:        0.8  user+sys:        0.8  wallclock:        3.4

  start of program pbf

Pbf Version 4.10

Molecular surface area:      844.28607   [A2]
Reaction field energy:       -24.51640   [kT]
  Peak memory usage: 721 Mb

  end of program pbf

 Time(pbf)  user:        8.4  user+sys:        8.5  wallclock:       23.5
  
  start of program solv
  
   number of surface charges from PBF   13354
   sum of surface charges     -0.00025
   
  nuclear repulsion energy.......   20753.590819652 hartrees
  Peak memory usage:    894 Mb
  
  end of program solv
   
 Time(solv)  user:       37.7  user+sys:       37.7  wallclock:      113.0
  
  start of program scf
  
 Energy computed with NOPS off.
  
       i  u  d  i  g                   
       t  p  i  c  r                                 RMS    maximum
       e  d  i  u  i                       energy  density   DIIS  
       r  t  s  t  d       total energy    change  change    error 
  
etot    1  N  N  1  U   -5575.62856749372           7.4E-06  1.5E-04
etot    2  N  N  1  U   -5575.62857336644  5.9E-06  0.0E+00  0.0E+00
  
  
 Energy components, in hartrees:
   (A)  Total zero-electron terms....   20756.59560560620
   (B)    Nuclear-nuclear............   20753.59081965232
   (C)    Nuclear-solvent............       3.00478595388
   (E)  Total one-electron terms.....  -49039.50391029762
   (F)    Electron-nuclear...........  -54572.56466816022
   (G)    Electron-solvent...........      -3.05499144941
   (H)    Kinetic....................    5536.11574931201
   (I)  Total two-electron terms.....   22707.27973132497
   (J)    Coulomb....................   23358.61518333921
   (K)    Exchange+Correlation.......    -651.33545201424
   (L)  Electronic energy............  -26332.22417897265  (E+I)
   (N)  Total quantum mech. energy...   -5575.62857336644  (A+L)
   (O)  Gas phase energy.............   -5575.58029881817
   (P)  Solution phase energy........   -5575.60347061868  (Q+R+S)
   (Q)    Total solute energy........   -5575.57836787092  (N-C-G)
   (R)    Total solvent energy.......      -0.02510274776  (C/2+G/2)
   (S)    Solute cavity energy.......       0.00000000000
   (U)  Reorganization energy........       0.00193094725  (Q-O)
   (V)  Solvation energy.............      -0.02317180051  (P-O)
  
 SCFE:  Solution phase energy: DFT(m06-2x)      -5575.60347061868 hartrees
        SCF iterations:   2
  
 
 HOMO energy:    -0.28183
 LUMO energy:    -0.06432
 
  Orbital energies (hartrees): 
   -60.97175   -53.58651   -51.54452   -31.41856   -30.68761   -30.04235
   -28.01019   -27.16727   -27.09122   -24.96902   -24.67732   -24.54085
   -22.74638   -22.67756   -22.24426   -22.10447   -21.68932   -20.10069
   -19.34105   -19.32613   -18.49903   -16.86063   -16.30105   -15.52863
   -15.08501   -15.03739   -13.92740   -13.25505   -13.18606   -12.47513
   -12.31790   -12.17176   -12.09812   -11.75470   -11.27285   -11.22236
   -11.22175   -11.12107   -11.03121   -10.94386   -10.93535   -10.92246
   -10.83399   -10.78692   -10.76486   -10.71207   -10.69433   -10.69204
   -10.67716   -10.63358   -10.61935   -10.59280   -10.57680   -10.54902
   -10.54752   -10.53384   -10.52254   -10.49135   -10.48405   -10.46380
   -10.45335   -10.43449   -10.43378   -10.42166   -10.40186   -10.39787
   -10.38719   -10.38184   -10.36716   -10.34948   -10.34451   -10.34365
   -10.33498   -10.33329   -10.26670   -10.25143   -10.24861   -10.24826
   -10.24489   -10.22333   -10.14421   -10.11568   -10.07132   -10.06038
   -10.03339   -10.02549    -9.99268    -9.92304    -9.89994    -9.85706
    -9.85075    -9.82031    -9.68957    -9.68924    -9.33156    -9.29149
    -9.08350    -9.06273    -9.00236    -8.94754    -8.77271    -8.51235
    -8.45904    -8.27360    -7.77905    -6.85197    -6.57160    -6.43126
    -5.53721    -5.51301    -4.80723    -4.42530    -1.76935    -1.46584
    -1.41214    -1.33447    -1.21981    -1.13957    -1.10532    -1.02726
    -0.98245    -0.95540    -0.94010    -0.93038    -0.92063    -0.89965
    -0.88447    -0.85291    -0.85251    -0.84492    -0.83121    -0.81781
    -0.81733    -0.81435    -0.81407    -0.80893    -0.80346    -0.80299
    -0.80060    -0.79913    -0.79808    -0.79281    -0.79208    -0.78959
    -0.78444    -0.77727    -0.77640    -0.77362    -0.76781    -0.76770
    -0.76458    -0.76049    -0.75613    -0.75319    -0.75124    -0.74819
    -0.74678    -0.74503    -0.74307    -0.73878    -0.73457    -0.72979
    -0.72894    -0.72877    -0.72874    -0.72725    -0.72483    -0.72127
    -0.71926    -0.71917    -0.71894    -0.71585    -0.71550    -0.70614
    -0.70478    -0.70477    -0.70255    -0.70103    -0.69813    -0.69297
    -0.68464    -0.68284    -0.68252    -0.68058    -0.67658    -0.67565
    -0.67535    -0.67232    -0.67227    -0.67222    -0.66950    -0.66603
    -0.66342    -0.65261    -0.64797    -0.64337    -0.63986    -0.63725
    -0.63602    -0.63044    -0.62910    -0.62881    -0.62865    -0.62678
    -0.62578    -0.62474    -0.61640    -0.61127    -0.61081    -0.60927
    -0.60280    -0.60140    -0.59530    -0.58632    -0.58283    -0.58212
    -0.58159    -0.58135    -0.57778    -0.57565    -0.56988    -0.56959
    -0.56854    -0.56342    -0.56259    -0.56084    -0.56014    -0.55870
    -0.55744    -0.55701    -0.55600    -0.53539    -0.53463    -0.53340
    -0.53275    -0.53257    -0.53216    -0.53099    -0.53009    -0.52949
    -0.52620    -0.52486    -0.52429    -0.52401    -0.52264    -0.51874
    -0.51699    -0.51699    -0.51679    -0.51552    -0.51492    -0.51148
    -0.51147    -0.51142    -0.50890    -0.50732    -0.50502    -0.50347
    -0.50281    -0.50213    -0.50186    -0.50156    -0.50031    -0.49974
    -0.49775    -0.49582    -0.49281    -0.49018    -0.49012    -0.48851
    -0.48800    -0.48409    -0.48072    -0.48065    -0.47766    -0.47586
    -0.47057    -0.47019    -0.46873    -0.46870    -0.46742    -0.46600
    -0.46507    -0.46213    -0.46163    -0.46093    -0.46064    -0.45871
    -0.45829    -0.45373    -0.45167    -0.45072    -0.45024    -0.44611
    -0.44459    -0.44321    -0.43995    -0.43943    -0.43942    -0.43886
    -0.43860    -0.43765    -0.43545    -0.43444    -0.43065    -0.42936
    -0.42412    -0.42341    -0.42100    -0.41771    -0.41620    -0.41532
    -0.41298    -0.41139    -0.40958    -0.40712    -0.40087    -0.39587
    -0.39478    -0.38423    -0.37724    -0.36642    -0.36209    -0.35285
    -0.34991    -0.34885    -0.34818    -0.34605    -0.32210    -0.32171
    -0.31326    -0.31088    -0.30731    -0.30692    -0.30595    -0.30571
    -0.30064    -0.29690    -0.29018    -0.28183    -0.06432    -0.02227
    -0.02003    -0.00325    -0.00258     0.01017     0.01394     0.01746
     0.02003     0.02172
 
  Peak memory usage:   1029 Mb
  
  end of program scf
   
 Time(scf)  user:     2940.0  user+sys:     2940.0  wallclock:     9333.5
  
  start of program sole
  
    SCRF                   solvation energy
  iteration          Hartrees            kcal/mol
     0               0.0000000            0.0000
     1              -0.0215864          -13.5457
     2              -0.0231718          -14.5405
  
  solvation energy not yet converged... 
  
  Peak memory usage:    813 Mb
  
  end of program sole
   
 Time(sole)  user:        0.2  user+sys:        0.2  wallclock:        0.5
  
  start of program ch
  
  gridpoints used for charge fit        16439
    out of a possible maximum of        16439
  
   Electrostatic potential fitting constrained to reproduce
     total charge:                yes
     dipole moment:               no 
     traceless quadrupole moment: no 
     traceless octapole moment:   no 
  
  Atomic charges from electrostatic potential: 
   
 Atom       C1           C2           C3           C4           C5      
 Charge   -0.12473      0.03120     -0.19138      0.17138     -0.00192
   
 Atom       C6           C7           C8           C9           C10     
 Charge   -0.23918     -0.33003     -0.09819      0.10823     -0.27339
   
 Atom       C11          O12          Si13         C14          C15     
 Charge    0.05914     -0.21248     -0.15193      0.13310      0.33117
   
 Atom       C16          C17          C18          C19          C20     
 Charge    0.24375     -0.16275     -0.42309     -0.26596      0.01740
   
 Atom       Si21         O22          C23          C24          P25     
 Charge   -0.07570     -0.29311     -0.17445     -0.10321      0.84220
   
 Atom       O26          N27          C28          C29          C30     
 Charge   -0.47282     -0.66045      0.17739     -0.01260      0.08955
   
 Atom       C31          C32          C33          C34          C35     
 Charge   -0.03230     -0.04675      0.18348     -0.20925     -0.18866
   
 Atom       C36          C37          C38          C39          C40     
 Charge   -0.15955      0.09205     -0.09246     -0.03716     -0.02153
   
 Atom       C41          C42          C43          C44          C45     
 Charge    0.02182      0.01977     -0.08734     -0.24076     -0.29928
   
 Atom       C46          C47          C48          C49          C50     
 Charge   -0.12506     -0.15453     -0.12660     -0.18672     -0.06975
   
 Atom       C51          C52          C53          C54          C55     
 Charge   -0.24492     -0.18413     -0.12181     -0.19665     -0.27778
   
 Atom       C56          C57          C58          C59          C60     
 Charge   -0.04600     -0.21682     -0.23811     -0.08770     -0.17865
   
 Atom       C61          C62          C63          C64          C65     
 Charge   -0.11594     -0.16358      0.01614     -0.03562     -0.23935
   
 Atom       C66          C67          C68          C69          C70     
 Charge    0.06079     -0.17526     -0.00102     -0.24902      0.36332
   
 Atom       N71          S72          O73          O74          C75     
 Charge   -0.68434      0.63077     -0.43153     -0.48406      0.59890
   
 Atom       C76          C77          C78          C79          N80     
 Charge   -0.47505      0.19314     -0.41497      0.36242     -0.59254
   
 Atom       N81          C82          C83          C84          C85     
 Charge   -0.02132      0.16608     -0.13186     -0.28181      0.05557
   
 Atom       H86          H87          H88          H89          H90     
 Charge    0.12900      0.15662      0.15020      0.18680      0.13896
   
 Atom       H91          H92          H93          H94          H95     
 Charge    0.13445      0.21712      0.16119      0.15253      0.13606
   
 Atom       H96          H97          H98          H99          H100    
 Charge    0.14372      0.10622      0.15766     -0.02447      0.11282
   
 Atom       H101         H102         H103         H104         H105    
 Charge    0.10488      0.11996      0.07610      0.05712      0.11877
   
 Atom       H106         H107         H108         H109         H110    
 Charge    0.14624      0.21018      0.13719      0.14179      0.14078
   
 Atom       H111         H112         H113         H114         H115    
 Charge    0.14591      0.10080      0.12922      0.14986      0.13123
   
 Atom       H116         H117         H118         H119         H120    
 Charge    0.13202      0.16647      0.12442      0.13303      0.15665
   
 Atom       H121         H122         H123         H124         H125    
 Charge    0.13011      0.13894      0.13548      0.11265      0.02750
   
 Atom       H126         H127         H128         H129         H130    
 Charge    0.12543      0.12096      0.13203      0.09503      0.16118
   
 Atom       H131         H132         H133         H134         H135    
 Charge    0.07504      0.22411      0.11392      0.20307      0.08342
   
 Atom       H136         H137         H138         H139         H140    
 Charge    0.21310      0.11176      0.17904      0.22902      0.16206
   
 Atom       S141         O142         C143         O144         F145    
 Charge    0.76048     -0.42839      0.41361     -0.42015     -0.13598
   
 Atom       F146         F147         H148    
 Charge   -0.15781     -0.10890      0.28802
  
  sum of atomic charges:     0.000000
   
 RMS Error   1.04E-03 hartrees
 
  Peak memory usage:    816 Mb
  
  end of program ch
   
 Time(ch)  user:       19.0  user+sys:       19.0  wallclock:       55.0
  
  start of program post
  
  Writing input files for PBF
  Peak memory usage:    759 Mb
  
  end of program post
   
 Time(post)  user:        0.9  user+sys:        0.9  wallclock:        3.7

  start of program pbf

Pbf Version 4.10

Molecular surface area:      844.28607   [A2]
Reaction field energy:       -25.01696   [kT]
  Peak memory usage: 721 Mb

  end of program pbf

 Time(pbf)  user:        8.7  user+sys:        8.8  wallclock:       26.4
  
  start of program solv
  
   number of surface charges from PBF   13354
   sum of surface charges     -0.00026
   
  nuclear repulsion energy.......   20753.590819652 hartrees
  Peak memory usage:    894 Mb
  
  end of program solv
   
 Time(solv)  user:       37.9  user+sys:       37.9  wallclock:      110.4
  
  start of program scf
  
 Energy computed with NOPS off.
  
       i  u  d  i  g                   
       t  p  i  c  r                                 RMS    maximum
       e  d  i  u  i                       energy  density   DIIS  
       r  t  s  t  d       total energy    change  change    error 
  
etot    1  N  N  1  U   -5575.62906999925           5.7E-06  1.3E-04
etot    2  N  N  1  U   -5575.62905530823 -1.5E-05  0.0E+00  0.0E+00
  
  
 Energy components, in hartrees:
   (A)  Total zero-electron terms....   20756.65109969930
   (B)    Nuclear-nuclear............   20753.59081965232
   (C)    Nuclear-solvent............       3.06028004698
   (E)  Total one-electron terms.....  -49039.20888914412
   (F)    Electron-nuclear...........  -54572.19286262462
   (G)    Electron-solvent...........      -3.11080000399
   (H)    Kinetic....................    5536.09477348449
   (I)  Total two-electron terms.....   22706.92873413659
   (J)    Coulomb....................   23358.26177064687
   (K)    Exchange+Correlation.......    -651.33303651028
   (L)  Electronic energy............  -26332.28015500753  (E+I)
   (N)  Total quantum mech. energy...   -5575.62905530823  (A+L)
   (O)  Gas phase energy.............   -5575.58029881817
   (P)  Solution phase energy........   -5575.60379532973  (Q+R+S)
   (Q)    Total solute energy........   -5575.57853535122  (N-C-G)
   (R)    Total solvent energy.......      -0.02525997850  (C/2+G/2)
   (S)    Solute cavity energy.......       0.00000000000
   (U)  Reorganization energy........       0.00176346694  (Q-O)
   (V)  Solvation energy.............      -0.02349651156  (P-O)
  
 SCFE:  Solution phase energy: DFT(m06-2x)      -5575.60379532973 hartrees
        SCF iterations:   2
  
 
 HOMO energy:    -0.25480
 LUMO energy:    -0.06437
 
  Orbital energies (hartrees): 
   -90.17257   -90.16034   -78.20628   -67.01351   -67.00640   -25.29235
   -25.29227   -25.28874   -19.68462   -19.68402   -19.65207   -19.65043
   -19.64402   -19.62868   -19.59883   -14.85599   -14.80185   -14.79407
   -14.74130   -10.80750   -10.65378   -10.63762   -10.63626   -10.63495
   -10.62401   -10.62104   -10.61339   -10.60656   -10.59725   -10.58901
   -10.58884   -10.57971   -10.57364   -10.57280   -10.56980   -10.56946
   -10.56783   -10.56433   -10.56180   -10.56111   -10.56019   -10.55756
   -10.55660   -10.55644   -10.55624   -10.55513   -10.55506   -10.55466
   -10.55462   -10.55444   -10.55307   -10.55295   -10.55271   -10.55211
   -10.55199   -10.55194   -10.55187   -10.55181   -10.55147   -10.55094
   -10.55087   -10.55028   -10.55008   -10.54912   -10.54808   -10.54796
   -10.54770   -10.54626   -10.54602   -10.54537   -10.54501   -10.54407
   -10.54328   -10.54317   -10.54270   -10.54252   -10.54238   -10.54146
   -10.54124   -10.54093   -10.54038   -10.53942   -10.53904   -10.53891
   -10.53889   -10.53849   -10.53749   -10.53660   -10.53184   -10.53141
   -10.52676   -10.52585    -8.48336    -8.46846    -6.98563    -6.40525
    -6.40462    -6.40406    -6.39085    -6.38980    -6.38969    -5.54443
    -5.53721    -5.10393    -5.10286    -5.10192    -3.85422    -3.85402
    -3.85365    -3.84699    -3.84672    -3.84654    -1.45797    -1.36785
    -1.36583    -1.24458    -1.22777    -1.22044    -1.18033    -1.14267
    -1.12867    -1.10803    -1.08535    -1.08343    -1.05309    -0.99538
    -0.98224    -0.96780    -0.96318    -0.95050    -0.94614    -0.94230
    -0.93774    -0.93547    -0.93297    -0.93222    -0.92579    -0.92244
    -0.91058    -0.90764    -0.89073    -0.88719    -0.85541    -0.85411
    -0.84677    -0.84277    -0.84236    -0.84120    -0.83854    -0.83730
    -0.83408    -0.83307    -0.82937    -0.82926    -0.82766    -0.82688
    -0.82622    -0.82515    -0.82460    -0.82215    -0.81850    -0.80059
    -0.80056    -0.76579    -0.75800    -0.73920    -0.73092    -0.72068
    -0.71215    -0.70941    -0.70258    -0.69939    -0.69539    -0.69070
    -0.68783    -0.68640    -0.68466    -0.68230    -0.68172    -0.67891
    -0.67834    -0.67714    -0.67611    -0.67089    -0.66918    -0.66768
    -0.66526    -0.66389    -0.66136    -0.65986    -0.65921    -0.65348
    -0.64867    -0.64525    -0.63591    -0.62406    -0.61109    -0.60981
    -0.60210    -0.59899    -0.59808    -0.59449    -0.58525    -0.58229
    -0.58089    -0.57892    -0.57638    -0.57529    -0.57497    -0.57134
    -0.56854    -0.56337    -0.56107    -0.55946    -0.55868    -0.55266
    -0.54979    -0.54691    -0.54385    -0.54026    -0.53805    -0.53670
    -0.53199    -0.52894    -0.52842    -0.52775    -0.52447    -0.52257
    -0.52252    -0.52038    -0.51525    -0.51492    -0.51365    -0.51196
    -0.51063    -0.50866    -0.50733    -0.50626    -0.50395    -0.50253
    -0.50215    -0.49903    -0.49665    -0.49659    -0.49530    -0.49421
    -0.49394    -0.49331    -0.49171    -0.49107    -0.48866    -0.48759
    -0.48688    -0.48550    -0.48457    -0.48405    -0.48059    -0.47960
    -0.47742    -0.47458    -0.47407    -0.47312    -0.46722    -0.46391
    -0.46064    -0.45537    -0.45286    -0.45131    -0.45031    -0.44889
    -0.44725    -0.44064    -0.43805    -0.43314    -0.43208    -0.43047
    -0.42862    -0.42693    -0.42455    -0.42288    -0.42181    -0.41959
    -0.41732    -0.41571    -0.41264    -0.40853    -0.40688    -0.40421
    -0.40216    -0.40086    -0.39971    -0.39793    -0.39647    -0.39461
    -0.39400    -0.39294    -0.39046    -0.38918    -0.38475    -0.38411
    -0.38384    -0.38154    -0.37976    -0.37816    -0.37180    -0.36852
    -0.36791    -0.36475    -0.36278    -0.35637    -0.35185    -0.34915
    -0.34642    -0.34481    -0.34192    -0.33974    -0.33958    -0.33616
    -0.33521    -0.33269    -0.33042    -0.32670    -0.30779    -0.30561
    -0.30528    -0.30476    -0.30319    -0.30019    -0.29966    -0.29839
    -0.29287    -0.29212    -0.29156    -0.28859    -0.28719    -0.28709
    -0.28589    -0.28395    -0.27461    -0.25480    -0.06437    -0.02306
    -0.02050    -0.00366    -0.00291     0.00966     0.01341     0.01700
     0.01951     0.02119
 
  Peak memory usage:   1029 Mb
  
  end of program scf
   
 Time(scf)  user:     2890.3  user+sys:     2890.3  wallclock:     9148.9
  
  start of program sole
  
    SCRF                   solvation energy
  iteration          Hartrees            kcal/mol
     0               0.0000000            0.0000
     1              -0.0215864          -13.5457
     2              -0.0231718          -14.5405
     3              -0.0234965          -14.7443
  
  solvation energy not yet converged... 
  
  Peak memory usage:    813 Mb
  
  end of program sole
   
 Time(sole)  user:        0.2  user+sys:        0.2  wallclock:        0.8
  
  start of program ch
  
[...]
       t  p  i  c  r                                 RMS    maximum
       e  d  i  u  i                       energy  density   DIIS  
       r  t  s  t  d       total energy    change  change    error 
  
etot    1  N  N  1  U   -5575.62911491348           1.3E-05  3.1E-04
etot    2  N  Y  1  U   -5575.62900415109 -1.1E-04  8.5E-06  5.2E-04
etot    3  N  Y  1  U   -5575.62917672654  1.7E-04  3.1E-07  1.5E-05
etot    4  N  N  1  U   -5575.62917692631  2.0E-07  0.0E+00  0.0E+00
  
  
 Energy components, in hartrees:
   (A)  Total zero-electron terms....   20756.67025310479
   (B)    Nuclear-nuclear............   20753.59081965232
   (C)    Nuclear-solvent............       3.07943345247
   (E)  Total one-electron terms.....  -49039.45624879743
   (F)    Electron-nuclear...........  -54572.43022204515
   (G)    Electron-solvent...........      -3.13019686189
   (H)    Kinetic....................    5536.10417010961
   (I)  Total two-electron terms.....   22707.15681876632
   (J)    Coulomb....................   23358.49103505866
   (K)    Exchange+Correlation.......    -651.33421629234
   (L)  Electronic energy............  -26332.29943003110  (E+I)
   (N)  Total quantum mech. energy...   -5575.62917692631  (A+L)
   (O)  Gas phase energy.............   -5575.58029881817
   (P)  Solution phase energy........   -5575.60379522160  (Q+R+S)
   (Q)    Total solute energy........   -5575.57841351690  (N-C-G)
   (R)    Total solvent energy.......      -0.02538170471  (C/2+G/2)
   (S)    Solute cavity energy.......       0.00000000000
   (U)  Reorganization energy........       0.00188530127  (Q-O)
   (V)  Solvation energy.............      -0.02349640344  (P-O)
  
 SCFE:  Solution phase energy: DFT(m06-2x)      -5575.60379522160 hartrees
        SCF iterations:   4
  
 
 HOMO energy:    -0.25456
 LUMO energy:    -0.06429
 
  Orbital energies (hartrees): 
   -90.17143   -90.15992   -78.20562   -67.01250   -67.00555   -25.29245
   -25.29215   -25.28878   -19.68382   -19.68348   -19.65299   -19.65051
   -19.64364   -19.62749   -19.59851   -14.85418   -14.79991   -14.79069
   -14.74080   -10.80742   -10.65419   -10.63669   -10.63441   -10.63425
   -10.62326   -10.62013   -10.61387   -10.60632   -10.59806   -10.59051
   -10.58919   -10.58113   -10.57314   -10.57186   -10.56924   -10.56906
   -10.56705   -10.56422   -10.56166   -10.56123   -10.56085   -10.55759
   -10.55742   -10.55677   -10.55602   -10.55572   -10.55504   -10.55475
   -10.55450   -10.55405   -10.55312   -10.55307   -10.55293   -10.55245
   -10.55242   -10.55227   -10.55195   -10.55138   -10.55078   -10.55063
   -10.55053   -10.54971   -10.54965   -10.54956   -10.54800   -10.54779
   -10.54765   -10.54638   -10.54599   -10.54531   -10.54450   -10.54423
   -10.54380   -10.54281   -10.54266   -10.54244   -10.54199   -10.54118
   -10.54099   -10.54082   -10.54003   -10.53940   -10.53895   -10.53797
   -10.53773   -10.53735   -10.53650   -10.53633   -10.53116   -10.53022
   -10.52542   -10.52490    -8.48229    -8.46803    -6.98498    -6.40418
    -6.40355    -6.40298    -6.39043    -6.38937    -6.38926    -5.54345
    -5.53638    -5.10328    -5.10221    -5.10127    -3.85323    -3.85303
    -3.85266    -3.84616    -3.84589    -3.84571    -1.45791    -1.36778
    -1.36579    -1.24416    -1.22715    -1.21982    -1.17967    -1.14209
    -1.12854    -1.10741    -1.08405    -1.08291    -1.05202    -0.99486
    -0.98193    -0.96765    -0.96286    -0.95035    -0.94602    -0.94213
    -0.93753    -0.93520    -0.93269    -0.93216    -0.92603    -0.92227
    -0.91043    -0.90720    -0.89043    -0.88685    -0.85512    -0.85396
    -0.84657    -0.84256    -0.84216    -0.84093    -0.83840    -0.83707
    -0.83394    -0.83285    -0.82915    -0.82903    -0.82746    -0.82661
    -0.82599    -0.82485    -0.82438    -0.82189    -0.81816    -0.80032
    -0.80020    -0.76541    -0.75762    -0.73894    -0.73058    -0.72035
    -0.71176    -0.70910    -0.70236    -0.69907    -0.69523    -0.69044
    -0.68757    -0.68615    -0.68457    -0.68220    -0.68146    -0.67877
    -0.67814    -0.67692    -0.67599    -0.67068    -0.66897    -0.66742
    -0.66507    -0.66360    -0.66110    -0.65960    -0.65893    -0.65316
    -0.64843    -0.64482    -0.63548    -0.62370    -0.61087    -0.60962
    -0.60181    -0.59875    -0.59765    -0.59410    -0.58517    -0.58191
    -0.58071    -0.57872    -0.57613    -0.57502    -0.57478    -0.57112
    -0.56862    -0.56322    -0.56089    -0.55939    -0.55842    -0.55235
    -0.54949    -0.54664    -0.54359    -0.53991    -0.53782    -0.53644
    -0.53174    -0.52869    -0.52812    -0.52755    -0.52436    -0.52241
    -0.52229    -0.52015    -0.51509    -0.51470    -0.51348    -0.51173
    -0.51041    -0.50847    -0.50705    -0.50607    -0.50367    -0.50238
    -0.50205    -0.49883    -0.49645    -0.49631    -0.49505    -0.49408
    -0.49376    -0.49308    -0.49168    -0.49083    -0.48855    -0.48738
    -0.48663    -0.48525    -0.48444    -0.48389    -0.48045    -0.47931
    -0.47718    -0.47431    -0.47377    -0.47284    -0.46697    -0.46367
    -0.46080    -0.45519    -0.45267    -0.45111    -0.45010    -0.44868
    -0.44704    -0.44039    -0.43764    -0.43292    -0.43188    -0.43019
    -0.42842    -0.42670    -0.42433    -0.42260    -0.42156    -0.41941
    -0.41698    -0.41549    -0.41246    -0.40823    -0.40665    -0.40386
    -0.40194    -0.40056    -0.39944    -0.39777    -0.39617    -0.39441
    -0.39376    -0.39239    -0.39031    -0.38891    -0.38452    -0.38382
    -0.38343    -0.38122    -0.37946    -0.37789    -0.37150    -0.36826
    -0.36749    -0.36451    -0.36244    -0.35594    -0.35143    -0.34821
    -0.34592    -0.34438    -0.34152    -0.33938    -0.33920    -0.33568
    -0.33458    -0.33226    -0.32982    -0.32634    -0.30767    -0.30537
    -0.30510    -0.30444    -0.30299    -0.30005    -0.29939    -0.29809
    -0.29262    -0.29183    -0.29128    -0.28823    -0.28689    -0.28677
    -0.28556    -0.28362    -0.27438    -0.25456    -0.06429    -0.02264
    -0.02025    -0.00344    -0.00275     0.00992     0.01369     0.01726
     0.01979     0.02145
 
  Peak memory usage:   1029 Mb
  
  end of program scf
   
 Time(scf)  user:     8525.5  user+sys:     8525.5  wallclock:    18524.7
  
  start of program sole
  
    SCRF                   solvation energy
  iteration          Hartrees            kcal/mol
     0               0.0000000            0.0000
     1              -0.0215864          -13.5457
     2              -0.0231718          -14.5405
     3              -0.0234965          -14.7443
     4              -0.0232293          -14.5766
     5              -0.0234964          -14.7442
  
  solvation energy not yet converged... 
  
  Peak memory usage:    813 Mb
  
  end of program sole
   
 Time(sole)  user:        0.2  user+sys:        0.2  wallclock:        0.3
  
  start of program ch
  
  gridpoints used for charge fit        16439
    out of a possible maximum of        16439
  
   Electrostatic potential fitting constrained to reproduce
     total charge:                yes
     dipole moment:               no 
     traceless quadrupole moment: no 
     traceless octapole moment:   no 
  
  Atomic charges from electrostatic potential: 
   
 Atom       C1           C2           C3           C4           C5      
 Charge   -0.12424      0.03133     -0.19193      0.17136     -0.00159
   
 Atom       C6           C7           C8           C9           C10     
 Charge   -0.23913     -0.33030     -0.09862      0.10839     -0.27327
   
 Atom       C11          O12          Si13         C14          C15     
 Charge    0.05916     -0.21258     -0.15122      0.13299      0.33191
   
 Atom       C16          C17          C18          C19          C20     
 Charge    0.24376     -0.16224     -0.42340     -0.26603      0.01742
   
 Atom       Si21         O22          C23          C24          P25     
 Charge   -0.07562     -0.29344     -0.17508     -0.10356      0.84267
   
 Atom       O26          N27          C28          C29          C30     
 Charge   -0.47289     -0.66064      0.17808     -0.01240      0.09061
   
 Atom       C31          C32          C33          C34          C35     
 Charge   -0.03181     -0.04637      0.18439     -0.20950     -0.18824
   
 Atom       C36          C37          C38          C39          C40     
 Charge   -0.15963      0.09295     -0.09271     -0.03638     -0.02167
   
 Atom       C41          C42          C43          C44          C45     
 Charge    0.02231      0.01996     -0.08709     -0.24086     -0.29918
   
 Atom       C46          C47          C48          C49          C50     
 Charge   -0.12528     -0.15492     -0.12696     -0.18727     -0.06969
   
 Atom       C51          C52          C53          C54          C55     
 Charge   -0.24538     -0.18392     -0.12268     -0.19745     -0.27808
   
 Atom       C56          C57          C58          C59          C60     
 Charge   -0.04609     -0.21727     -0.23820     -0.08805     -0.17908
   
 Atom       C61          C62          C63          C64          C65     
 Charge   -0.11633     -0.16416      0.01634     -0.03638     -0.23997
   
 Atom       C66          C67          C68          C69          C70     
 Charge    0.06157     -0.17454     -0.00060     -0.24926      0.36352
   
 Atom       N71          S72          O73          O74          C75     
 Charge   -0.68370      0.63191     -0.43208     -0.48549      0.60073
   
 Atom       C76          C77          C78          C79          N80     
 Charge   -0.47579      0.19238     -0.41667      0.36295     -0.59214
   
 Atom       N81          C82          C83          C84          C85     
 Charge   -0.02032      0.16632     -0.13326     -0.28212      0.05519
   
 Atom       H86          H87          H88          H89          H90     
 Charge    0.12879      0.15676      0.15017      0.18666      0.13911
   
 Atom       H91          H92          H93          H94          H95     
 Charge    0.13423      0.21706      0.16125      0.15272      0.13621
   
 Atom       H96          H97          H98          H99          H100    
 Charge    0.14362      0.10597      0.15759     -0.02476      0.11286
   
 Atom       H101         H102         H103         H104         H105    
 Charge    0.10461      0.12003      0.07589      0.05691      0.11868
   
 Atom       H106         H107         H108         H109         H110    
 Charge    0.14613      0.21053      0.13728      0.14191      0.14082
   
 Atom       H111         H112         H113         H114         H115    
 Charge    0.14598      0.10062      0.12929      0.14977      0.13148
   
 Atom       H116         H117         H118         H119         H120    
 Charge    0.13220      0.16642      0.12447      0.13305      0.15667
   
 Atom       H121         H122         H123         H124         H125    
 Charge    0.13021      0.13904      0.13560      0.11273      0.02687
   
 Atom       H126         H127         H128         H129         H130    
 Charge    0.12565      0.12097      0.13185      0.09491      0.16117
   
 Atom       H131         H132         H133         H134         H135    
 Charge    0.07478      0.22420      0.11433      0.20360      0.08336
   
 Atom       H136         H137         H138         H139         H140    
 Charge    0.21337      0.11116      0.17943      0.22943      0.16227
   
 Atom       S141         O142         C143         O144         F145    
 Charge    0.76066     -0.42867      0.41380     -0.41993     -0.13609
   
 Atom       F146         F147         H148    
 Charge   -0.15815     -0.10911      0.28808
  
  sum of atomic charges:    -0.000000
   
 RMS Error   1.04E-03 hartrees
 
  Peak memory usage:    816 Mb
  
  end of program ch
   
 Time(ch)  user:       18.0  user+sys:       18.0  wallclock:       29.5
  
  start of program post
  
  Writing input files for PBF
  Peak memory usage:    759 Mb
  
  end of program post
   
 Time(post)  user:        0.8  user+sys:        0.8  wallclock:        2.1

  start of program pbf

Pbf Version 4.10

Molecular surface area:      844.28607   [A2]
Reaction field energy:       -24.98565   [kT]
  Peak memory usage: 721 Mb

  end of program pbf

 Time(pbf)  user:        8.2  user+sys:        8.2  wallclock:       11.9
  
  start of program solv
  
   number of surface charges from PBF   13354
   sum of surface charges     -0.00025
   
  nuclear repulsion energy.......   20753.590819652 hartrees
  Peak memory usage:    894 Mb
  
  end of program solv
   
 Time(solv)  user:       35.9  user+sys:       35.9  wallclock:       61.0
  
  start of program scf
  
 Energy computed with NOPS off.
  
       i  u  d  i  g                   
       t  p  i  c  r                                 RMS    maximum
       e  d  i  u  i                       energy  density   DIIS  
       r  t  s  t  d       total energy    change  change    error 
  
etot    1  N  N  1  U   -5575.62905135312           8.7E-07  2.1E-05
etot    2  N  N  1  U   -5575.62905147689  1.2E-07  0.0E+00  0.0E+00
  
  
 Energy components, in hartrees:
   (A)  Total zero-electron terms....   20756.64201568269
   (B)    Nuclear-nuclear............   20753.59081965232
   (C)    Nuclear-solvent............       3.05119603037
   (E)  Total one-electron terms.....  -49039.39769297495
   (F)    Electron-nuclear...........  -54572.39912933943
   (G)    Electron-solvent...........      -3.10179741372
   (H)    Kinetic....................    5536.10323377820
   (I)  Total two-electron terms.....   22707.12662581537
   (J)    Coulomb....................   23358.46066939468
   (K)    Exchange+Correlation.......    -651.33404357931
   (L)  Electronic energy............  -26332.27106715957  (E+I)
   (N)  Total quantum mech. energy...   -5575.62905147689  (A+L)
   (O)  Gas phase energy.............   -5575.58029881817
   (P)  Solution phase energy........   -5575.60375078521  (Q+R+S)
   (Q)    Total solute energy........   -5575.57845009353  (N-C-G)
   (R)    Total solvent energy.......      -0.02530069168  (C/2+G/2)
   (S)    Solute cavity energy.......       0.00000000000
   (U)  Reorganization energy........       0.00184872463  (Q-O)
   (V)  Solvation energy.............      -0.02345196704  (P-O)
  
 SCFE:  Solution phase energy: DFT(m06-2x)      -5575.60375078521 hartrees
        SCF iterations:   2
  
 
 HOMO energy:    -0.25457
 LUMO energy:    -0.06428
 
  Orbital energies (hartrees): 
   -90.17149   -90.15992   -78.20558   -67.01254   -67.00555   -25.29242
   -25.29214   -25.28871   -19.68379   -19.68340   -19.65271   -19.65072
   -19.64362   -19.62768   -19.59858   -14.85428   -14.80001   -14.79108
   -14.74071   -10.80740   -10.65415   -10.63673   -10.63446   -10.63442
   -10.62320   -10.62008   -10.61384   -10.60636   -10.59800   -10.59032
   -10.58912   -10.58095   -10.57322   -10.57191   -10.56929   -10.56909
   -10.56707   -10.56430   -10.56173   -10.56128   -10.56076   -10.55750
   -10.55744   -10.55676   -10.55590   -10.55570   -10.55503   -10.55478
   -10.55453   -10.55409   -10.55308   -10.55308   -10.55291   -10.55244
   -10.55236   -10.55222   -10.55197   -10.55139   -10.55080   -10.55077
   -10.55050   -10.54982   -10.54965   -10.54953   -10.54796   -10.54776
   -10.54769   -10.54633   -10.54596   -10.54532   -10.54447   -10.54422
   -10.54376   -10.54277   -10.54267   -10.54244   -10.54201   -10.54116
   -10.54101   -10.54083   -10.54002   -10.53942   -10.53894   -10.53805
   -10.53770   -10.53742   -10.53651   -10.53637   -10.53117   -10.53023
   -10.52544   -10.52489    -8.48234    -8.46803    -6.98495    -6.40423
    -6.40360    -6.40304    -6.39043    -6.38937    -6.38926    -5.54349
    -5.53639    -5.10324    -5.10218    -5.10124    -3.85327    -3.85307
    -3.85270    -3.84616    -3.84589    -3.84571    -1.45788    -1.36776
    -1.36575    -1.24417    -1.22715    -1.21982    -1.17963    -1.14211
    -1.12853    -1.10746    -1.08419    -1.08292    -1.05208    -0.99484
    -0.98195    -0.96767    -0.96287    -0.95035    -0.94602    -0.94212
    -0.93752    -0.93520    -0.93269    -0.93215    -0.92599    -0.92227
    -0.91043    -0.90722    -0.89045    -0.88687    -0.85513    -0.85398
    -0.84657    -0.84256    -0.84217    -0.84093    -0.83840    -0.83707
    -0.83393    -0.83285    -0.82915    -0.82903    -0.82746    -0.82661
    -0.82599    -0.82485    -0.82437    -0.82188    -0.81816    -0.80033
    -0.80022    -0.76540    -0.75763    -0.73896    -0.73058    -0.72036
    -0.71177    -0.70910    -0.70236    -0.69907    -0.69523    -0.69045
    -0.68757    -0.68615    -0.68455    -0.68218    -0.68146    -0.67877
    -0.67814    -0.67691    -0.67598    -0.67067    -0.66896    -0.66742
    -0.66507    -0.66359    -0.66110    -0.65960    -0.65893    -0.65316
    -0.64844    -0.64484    -0.63547    -0.62369    -0.61087    -0.60962
    -0.60181    -0.59875    -0.59765    -0.59411    -0.58517    -0.58192
    -0.58071    -0.57872    -0.57613    -0.57503    -0.57477    -0.57112
    -0.56860    -0.56320    -0.56089    -0.55937    -0.55842    -0.55236
    -0.54948    -0.54664    -0.54360    -0.53992    -0.53782    -0.53645
    -0.53174    -0.52869    -0.52812    -0.52755    -0.52434    -0.52241
    -0.52230    -0.52014    -0.51508    -0.51470    -0.51347    -0.51173
    -0.51040    -0.50847    -0.50705    -0.50606    -0.50367    -0.50237
    -0.50203    -0.49882    -0.49646    -0.49632    -0.49505    -0.49409
    -0.49376    -0.49308    -0.49167    -0.49083    -0.48855    -0.48739
    -0.48664    -0.48526    -0.48444    -0.48390    -0.48044    -0.47931
    -0.47718    -0.47431    -0.47377    -0.47284    -0.46698    -0.46367
    -0.46077    -0.45519    -0.45268    -0.45111    -0.45011    -0.44868
    -0.44705    -0.44039    -0.43765    -0.43292    -0.43188    -0.43019
    -0.42842    -0.42669    -0.42432    -0.42260    -0.42155    -0.41941
    -0.41699    -0.41548    -0.41245    -0.40824    -0.40665    -0.40387
    -0.40194    -0.40058    -0.39946    -0.39777    -0.39618    -0.39441
    -0.39376    -0.39241    -0.39030    -0.38891    -0.38451    -0.38382
    -0.38344    -0.38122    -0.37946    -0.37790    -0.37150    -0.36828
    -0.36750    -0.36452    -0.36246    -0.35595    -0.35144    -0.34828
    -0.34594    -0.34440    -0.34153    -0.33938    -0.33921    -0.33568
    -0.33460    -0.33227    -0.32983    -0.32634    -0.30767    -0.30537
    -0.30509    -0.30445    -0.30299    -0.30004    -0.29939    -0.29809
    -0.29261    -0.29184    -0.29128    -0.28823    -0.28688    -0.28677
    -0.28556    -0.28361    -0.27439    -0.25457    -0.06428    -0.02267
    -0.02026    -0.00345    -0.00275     0.00992     0.01369     0.01726
     0.01979     0.02146
 
  Peak memory usage:   1029 Mb
  
  end of program scf
   
 Time(scf)  user:     2809.4  user+sys:     2809.4  wallclock:     4227.6
  
  start of program sole
  
    SCRF                   solvation energy
  iteration          Hartrees            kcal/mol
     0               0.0000000            0.0000
     1              -0.0215864          -13.5457
     2              -0.0231718          -14.5405
     3              -0.0234965          -14.7443
     4              -0.0232293          -14.5766
     5              -0.0234964          -14.7442
     6              -0.0234520          -14.7163
  
  stopping: solvation energy converged
  
  iterations:   6    sfinal:    -14.7163 kcal/mol
  
  Peak memory usage:    813 Mb
  
  end of program sole
   
 Time(sole)  user:        0.1  user+sys:        0.1  wallclock:        0.2
  
  start of program post
  
  Writing input files for PBF
  Peak memory usage:    759 Mb
  
  end of program post
   
 Time(post)  user:        0.8  user+sys:        0.8  wallclock:        1.6

 Total cpu seconds     user:   66141.949   user+sys:   66141.949
  
 Total elapsed time:    195181 seconds

Job Toru-NTf-Sulfonyl-1-chkp-unrestrained-IRC-min-disp-SPE completed on tethys at Sun Mar 26 20:58:14 2017
