Job Type-I-Z-sulfonyl-bind-3-chkp-unrestrained-IRC-min-disp-2-SPE started on tethys at Mon Mar 27 11:25:33 2017
jobid: tethys-0-58d8e89a

  +--------------------------------------------------------------------+
  |  Jaguar version 9.5, release  11                                   |
  |                                                                    |
  |  Copyright Schrodinger, Inc.                                       |
  |  All Rights Reserved.                                              |
  |                                                                    |
  |  The following have contributed to Jaguar (listed alphabetically): |
  |  Mike Beachy, Art Bochevarov, Dale Braden, Yixiang Cao,            |
  |  Chris Cortis, Rich Friesner, Bill Goddard, Hod Greeley,           |
  |  Tom Hughes, Leif Jacobson, Jean-Marc Langlois,                    |
  |  Daniel Mainz, Rob Murphy, Dean Philipp, Tom Pollard,              |
  |  Murco Ringnalda, Mark Watson, Haoyu Yu.                           |
  |                                                                    |
  |  Use of this program should be acknowledged in publications as:    |
  |                                                                    |
  |  Jaguar, version 9.5, Schrodinger, Inc., New York, NY, 2017.       |
  |                                                                    |
  |  A. D. Bochevarov, E. Harder, T. F. Hughes, J. R. Greenwood,       |
  |  D. A. Braden, D. M. Philipp, D. Rinaldo, M. D. Halls,             |
  |  J. Zhang, R. A. Friesner, "Jaguar: A High-Performance Quantum     |
  |  Chemistry Software Program with Strengths in Life and Materials   |
  |  Sciences", Int. J. Quantum Chem., 2013, 113(18), 2110-2142.       |
  +--------------------------------------------------------------------+
  
  start of program pre
  
  Job name: Type-I-Z-sulfonyl-bind-3-chkp-unrestrained-IRC-min-disp-2-SPE
  Executables used: /usr/local/shared/schrodinger/current/jaguar-v9.5/bin/Linux-x86_64
  Temporary files : /scratch/ab2144/Type-I-Z-sulfonyl-bind-3-chkp-unrestrained-IRC-min-disp-2-SPE
  Maestro file (input):  Type-I-Z-sulfonyl-bind-3-chkp-unrestrained-IRC-min-disp-2-SPE.mae
  Maestro file (output): Type-I-Z-sulfonyl-bind-3-chkp-unrestrained-IRC-min-disp-2-SPE.01.mae
  
  basis set:             6-31g**                         
  net molecular charge:    0
  multiplicity:            1
  
  keygrid settings 
    wispc.....   7.500E-01
    ldens.....   0
    denspc....   7.500E-01
  
   grid     daf set  nls  grid set  Q type
  ------    -------  ---  --------  ------
  coarse       1      1       1        1
  medium       2      2       2        1
  fine         3      2       3        0
  ultrafine    4      2       4        1
  charge       0      1      -1        1
  gradient     5      2       4        1
  density      0      1       0        0
  DFT-fine     0      1     -13        0
  DFT-med.     0      1     -13        0
  DFT-grad     0      1     -13        0
  DFT-der2     0      1       0        0
  DFT-cphf     0      1       0        0
  LMP2-enrg    4      2       4        1
  LMP2-grad    5      2       2        1
  DFT-cphf2    0      1       0        0
  PBF-dens     0      1       0        0
  plotting     0      1       0        0
  Rel-grad     0      1     -17        0
  
  idftgrdm  100
  ndftgrdm   50    0    0
  idftgrdf  111
  ndftgrdf   85    0    0
  idftgrdg  111
  ndftgrdg   80    3    0
  idftgrdu  433
  ndftgrdu  105    0    0
  idftgrdd  433
  ndftgrdd  105    0    0
  idftgrdc  433
  ndftgrdc   26    0    0
  idftgrdp  433
  ndftgrdp   18    0    0
  
  number of basis functions....         1680
  
 Input geometry:
                                   angstroms
  atom               x                 y                 z
  C1           -1.9989000000      2.9008000000      0.0015000000 
  C2           -4.6080000000      2.5215000000      1.0273000000 
  C3           -3.7907000000      1.3473000000      0.6516000000 
  C4           -2.5134000000      1.5201000000      0.2502000000 
  H5           -5.6219000000      2.3852000000      1.3776000000 
  C6            1.7665000000      3.7543000000     -1.8911000000 
  C7            1.7321000000      3.0327000000     -0.7606000000 
  C8            0.4166000000      2.5716000000     -0.2314000000 
  C9           -0.7234000000      3.0767000000     -0.7417000000 
  H10           2.7028000000      4.1100000000     -2.2941000000 
  C11          -2.7289000000      3.9656000000      0.4131000000 
  C12          -4.0974000000      3.7555000000      0.9480000000 
  C13          -4.8966000000      4.9344000000      1.3380000000 
  C14          -4.3838000000      6.1644000000      1.2273000000 
  C15          -3.0122000000      6.3846000000      0.7219000000 
  C16          -2.2331000000      5.3651000000      0.3420000000 
  H17          -5.9047000000      4.8110000000      1.7155000000 
  H18          -4.9806000000      7.0195000000      1.5178000000 
  H19          -2.6305000000      7.3961000000      0.6667000000 
  H20          -1.2285000000      5.5831000000      0.0033000000 
  C21           0.5176000000      4.1203000000     -2.5882000000 
  C22          -0.6788000000      3.8164000000     -2.0376000000 
  C23          -1.9239000000      4.1644000000     -2.7746000000 
  C24          -1.8581000000      4.8052000000     -3.9473000000 
  C25          -0.5483000000      5.1647000000     -4.5238000000 
  C26           0.5789000000      4.8388000000     -3.8820000000 
  H27          -2.8937000000      3.8908000000     -2.3805000000 
  H28          -2.7660000000      5.0542000000     -4.4812000000 
  H29          -0.5029000000      5.6870000000     -5.4707000000 
  H30           1.5367000000      5.1001000000     -4.3146000000 
  Si31         -4.5495000000     -0.3574000000      0.7407000000 
  Si32          3.2965000000      2.7986000000      0.2408000000 
  C33          -4.3882000000     -2.3826000000     -3.4942000000 
  C34          -4.8384000000     -3.0694000000     -2.4384000000 
  C35          -4.9102000000     -2.4240000000     -1.1116000000 
  C36          -4.4994000000     -1.1540000000     -0.9497000000 
  C37          -4.0470000000     -0.3845000000     -2.1357000000 
  C38          -3.9858000000     -0.9710000000     -3.3377000000 
  H39          -4.3300000000     -2.8553000000     -4.4660000000 
  H40          -5.1449000000     -4.1011000000     -2.5517000000 
  H41          -5.2838000000     -2.9964000000     -0.2716000000 
  H42          -3.7773000000      0.6582000000     -2.0467000000 
  H43          -3.6519000000     -0.4084000000     -4.1999000000 
  C44          -2.1968000000     -2.8940000000      3.9078000000 
  C45          -2.6504000000     -1.6770000000      4.2247000000 
  C46          -3.3456000000     -0.8596000000      3.2096000000 
  C47          -3.5474000000     -1.3403000000      1.9706000000 
  C48          -2.9565000000     -2.6517000000      1.6038000000 
  C49          -2.3310000000     -3.3930000000      2.5258000000 
  H50          -1.7044000000     -3.5026000000      4.6550000000 
  H51          -2.5273000000     -1.2963000000      5.2302000000 
  H52          -3.6906000000      0.1251000000      3.4893000000 
  H53          -3.0028000000     -3.0143000000      0.5905000000 
  H54          -1.9001000000     -4.3484000000      2.2549000000 
  C55          -9.0265000000     -0.1233000000      2.1625000000 
  C56          -8.7408000000     -0.5132000000      0.9160000000 
  C57          -7.3356000000     -0.5834000000      0.4644000000 
  C58          -6.3321000000     -0.2668000000      1.3036000000 
  C59          -6.6623000000      0.1796000000      2.6813000000 
  C60          -7.9366000000      0.2448000000      3.0860000000 
  H61         -10.0554000000     -0.0703000000      2.4941000000 
  H62          -9.5385000000     -0.7776000000      0.2339000000 
  H63          -7.1438000000     -0.8837000000     -0.5555000000 
  H64          -5.8847000000      0.4787000000      3.3656000000 
  H65          -8.1718000000      0.5772000000      4.0889000000 
  C66           5.6356000000     -1.0507000000     -1.0403000000 
  C67           4.4659000000     -0.7613000000     -1.6212000000 
  C68           3.7125000000      0.4420000000     -1.2113000000 
  C69           4.1872000000      1.2394000000     -0.2417000000 
  C70           5.4943000000      0.9246000000      0.3842000000 
  C71           6.1786000000     -0.1621000000      0.0063000000 
  H72           6.1870000000     -1.9333000000     -1.3375000000 
  H73           4.0731000000     -1.4039000000     -2.3977000000 
  H74           2.7913000000      0.6778000000     -1.7220000000 
  H75           5.9035000000      1.5758000000      1.1464000000 
  H76           7.1300000000     -0.3930000000      0.4675000000 
  C77           1.9334000000      2.8072000000      4.7244000000 
  C78           2.7572000000      1.8478000000      4.2869000000 
  C79           3.2136000000      1.8478000000      2.8818000000 
  C80           2.8064000000      2.8079000000      2.0373000000 
  C81           1.8993000000      3.8738000000      2.5308000000 
  C82           1.4842000000      3.8705000000      3.8033000000 
  H83           1.5955000000      2.8068000000      5.7526000000 
  H84           3.0878000000      1.0664000000      4.9589000000 
  H85           3.8756000000      1.0644000000      2.5546000000 
  H86           1.5611000000      4.6539000000      1.8600000000 
  H87           0.8178000000      4.6454000000      4.1593000000 
  C88           6.3541000000      6.2658000000     -0.5508000000 
  C89           6.1455000000      5.3271000000     -1.4807000000 
  C90           5.1795000000      4.2379000000     -1.2294000000 
  C91           4.4936000000      4.1908000000     -0.0739000000 
  C92           4.7428000000      5.2266000000      0.9596000000 
  C93           5.6217000000      6.2103000000      0.7299000000 
  H94           7.0621000000      7.0639000000     -0.7327000000 
  H95           6.6847000000      5.3621000000     -2.4185000000 
  H96           5.0402000000      3.4788000000     -1.9893000000 
  H97           4.2242000000      5.1983000000      1.9068000000 
  H98           5.8012000000      6.9653000000      1.4844000000 
  O99          -1.7676000000      0.4234000000     -0.1044000000 
  O100          0.3656000000      1.7246000000      0.8470000000 
  P101         -0.2703000000      0.2539000000      0.5191000000 
  O102         -0.2696000000     -0.4613000000      1.8451000000 
  N103          2.6481000000     -3.6757000000     -0.7472000000 
  H104          2.3372000000     -3.0387000000     -1.4933000000 
  C105          2.5425000000     -3.0795000000      0.5849000000 
  C106          6.2534000000     -2.5822000000      2.7579000000 
  C107          5.1983000000     -1.6855000000      2.9270000000 
  C108          4.0187000000     -1.8569000000      2.2025000000 
  C109          3.8717000000     -2.9297000000      1.3151000000 
  C110          4.9335000000     -3.8245000000      1.1489000000 
  C111          6.1178000000     -3.6464000000      1.8648000000 
  H112          7.1793000000     -2.4459000000      3.3088000000 
  H113          5.2988000000     -0.8430000000      3.6049000000 
  H114          3.2043000000     -1.1480000000      2.3131000000 
  H115          4.8395000000     -4.6525000000      0.4563000000 
  H116          6.9396000000     -4.3414000000      1.7190000000 
  H117          2.1649000000     -2.0741000000      0.3702000000 
  N118          0.6138000000     -0.4147000000     -0.6613000000 
  S119          0.1285000000     -1.2218000000     -1.9393000000 
  O120         -1.1276000000     -1.9694000000     -1.7895000000 
  O121          1.2900000000     -1.9401000000     -2.5112000000 
  C122         -0.2148000000      0.0572000000     -3.2640000000 
  F123         -1.2083000000      0.8790000000     -2.8966000000 
  F124          0.8741000000      0.7971000000     -3.5000000000 
  F125         -0.5707000000     -0.5635000000     -4.3926000000 
  C126          1.4376000000     -3.7087000000      1.5366000000 
  C127          1.8693000000     -4.7678000000      2.4946000000 
  C128          1.6294000000     -4.3575000000      3.7641000000 
  C129          1.0449000000     -3.0457000000      3.6700000000 
  N130          0.9165000000     -2.6741000000      2.4294000000 
  H131          0.6202000000     -4.0842000000      0.8932000000 
  H132          2.2993000000     -5.6987000000      2.1560000000 
  H133          1.8271000000     -4.8853000000      4.6862000000 
  H134          0.7138000000     -2.4029000000      4.4787000000 
  H135          0.4441000000     -1.7511000000      2.1156000000 
  S136          2.4717000000     -5.2581000000     -1.2027000000 
  O137          3.2826000000     -5.4818000000     -2.3989000000 
  O138          2.6627000000     -6.0881000000     -0.0048000000 
  C139         -1.8493000000     -5.5386000000     -2.5173000000 
  C140         -1.4638000000     -5.2292000000     -1.2122000000 
  N141         -0.1847000000     -5.1614000000     -0.8288000000 
  C142          0.7409000000     -5.4007000000     -1.7540000000 
  C143          0.4783000000     -5.7171000000     -3.0829000000 
  C144         -0.8616000000     -5.7855000000     -3.4667000000 
  H145         -2.9014000000     -5.5719000000     -2.7777000000 
  H146         -2.2085000000     -5.0282000000     -0.4486000000 
  H147          1.2951000000     -5.8870000000     -3.7727000000 
  H148         -1.1249000000     -6.0205000000     -4.4933000000 
   
  principal moments of inertia:
        amu*angstrom^2:    21306.24738    23944.37994    32207.39165
                g*cm^2: 3.53798517E-36 3.97605734E-36 5.34816254E-36
   
  rotational constants:
               cm^(-1):      0.00079121      0.00070403      0.00052341
                   GHz:      0.02371976      0.02110637      0.01569140
   
  Molecular weight:    1308.28 amu
   
  Stoichiometry: Si2C73PN4H56S2O7F3
[running at reduced cpu priority]
  Molecular Point Group: C1      
  Point Group used: C1
  
  nuclear repulsion energy.......   20890.753310998 hartrees
 
 Non-default options chosen:
   SCF calculation type: DFT(m06-2x)                 
   DFT=M06-2X
   Solvation energy will be computed using PBF
     -solute cavity energy will not be included
     -surface area terms will not be included
   Highest accuracy cutoffs used in SCF
   Solvent: other                                                           
   Internal dielectric constant:    1.000
   Continuum dielectric constant:   2.380
   Solvent probe molecule radius:   2.760
  
 Temporary integer options set:
     73=  2
  
  atom       vdw   vdw2    cov     mass  grid  daf  charge   basis
  C1        1.949  1.900  0.770   12.000    Y    Y      Y    6-31g**
  C2        1.949  1.900  0.770   12.000    Y    Y      Y    6-31g**
  C3        1.949  1.900  0.770   12.000    Y    Y      Y    6-31g**
  C4        1.949  1.900  0.770   12.000    Y    Y      Y    6-31g**
  H5        1.597  1.150  0.320    1.008    Y    Y      Y    6-31g**
  C6        1.949  1.900  0.770   12.000    Y    Y      Y    6-31g**
  C7        1.949  1.900  0.770   12.000    Y    Y      Y    6-31g**
  C8        1.949  1.900  0.770   12.000    Y    Y      Y    6-31g**
  C9        1.949  1.900  0.770   12.000    Y    Y      Y    6-31g**
  H10       1.597  1.150  0.320    1.008    Y    Y      Y    6-31g**
  C11       1.949  1.900  0.770   12.000    Y    Y      Y    6-31g**
  C12       1.949  1.900  0.770   12.000    Y    Y      Y    6-31g**
  C13       1.949  1.900  0.770   12.000    Y    Y      Y    6-31g**
  C14       1.949  1.900  0.770   12.000    Y    Y      Y    6-31g**
  C15       1.949  1.900  0.770   12.000    Y    Y      Y    6-31g**
  C16       1.949  1.900  0.770   12.000    Y    Y      Y    6-31g**
  H17       1.597  1.150  0.320    1.008    Y    Y      Y    6-31g**
  H18       1.597  1.150  0.320    1.008    Y    Y      Y    6-31g**
  H19       1.597  1.150  0.320    1.008    Y    Y      Y    6-31g**
  H20       1.597  1.150  0.320    1.008    Y    Y      Y    6-31g**
  C21       1.949  1.900  0.770   12.000    Y    Y      Y    6-31g**
  C22       1.949  1.900  0.770   12.000    Y    Y      Y    6-31g**
  C23       1.949  1.900  0.770   12.000    Y    Y      Y    6-31g**
  C24       1.949  1.900  0.770   12.000    Y    Y      Y    6-31g**
  C25       1.949  1.900  0.770   12.000    Y    Y      Y    6-31g**
  C26       1.949  1.900  0.770   12.000    Y    Y      Y    6-31g**
  H27       1.597  1.150  0.320    1.008    Y    Y      Y    6-31g**
  H28       1.597  1.150  0.320    1.008    Y    Y      Y    6-31g**
  H29       1.597  1.150  0.320    1.008    Y    Y      Y    6-31g**
  H30       1.597  1.150  0.320    1.008    Y    Y      Y    6-31g**
  Si31      2.217  2.147  1.110   27.977    Y    Y      Y    6-31g**
  Si32      2.217  2.147  1.110   27.977    Y    Y      Y    6-31g**
  C33       1.949  1.900  0.770   12.000    Y    Y      Y    6-31g**
  C34       1.949  1.900  0.770   12.000    Y    Y      Y    6-31g**
  C35       1.949  1.900  0.770   12.000    Y    Y      Y    6-31g**
  C36       1.949  1.900  0.770   12.000    Y    Y      Y    6-31g**
  C37       1.949  1.900  0.770   12.000    Y    Y      Y    6-31g**
  C38       1.949  1.900  0.770   12.000    Y    Y      Y    6-31g**
  H39       1.597  1.150  0.320    1.008    Y    Y      Y    6-31g**
  H40       1.597  1.150  0.320    1.008    Y    Y      Y    6-31g**
  H41       1.597  1.150  0.320    1.008    Y    Y      Y    6-31g**
  H42       1.597  1.150  0.320    1.008    Y    Y      Y    6-31g**
  H43       1.597  1.150  0.320    1.008    Y    Y      Y    6-31g**
  C44       1.949  1.900  0.770   12.000    Y    Y      Y    6-31g**
  C45       1.949  1.900  0.770   12.000    Y    Y      Y    6-31g**
  C46       1.949  1.900  0.770   12.000    Y    Y      Y    6-31g**
  C47       1.949  1.900  0.770   12.000    Y    Y      Y    6-31g**
  C48       1.949  1.900  0.770   12.000    Y    Y      Y    6-31g**
  C49       1.949  1.900  0.770   12.000    Y    Y      Y    6-31g**
  H50       1.597  1.150  0.320    1.008    Y    Y      Y    6-31g**
  H51       1.597  1.150  0.320    1.008    Y    Y      Y    6-31g**
  H52       1.597  1.150  0.320    1.008    Y    Y      Y    6-31g**
  H53       1.597  1.150  0.320    1.008    Y    Y      Y    6-31g**
  H54       1.597  1.150  0.320    1.008    Y    Y      Y    6-31g**
  C55       1.949  1.900  0.770   12.000    Y    Y      Y    6-31g**
  C56       1.949  1.900  0.770   12.000    Y    Y      Y    6-31g**
  C57       1.949  1.900  0.770   12.000    Y    Y      Y    6-31g**
  C58       1.949  1.900  0.770   12.000    Y    Y      Y    6-31g**
  C59       1.949  1.900  0.770   12.000    Y    Y      Y    6-31g**
  C60       1.949  1.900  0.770   12.000    Y    Y      Y    6-31g**
  H61       1.597  1.150  0.320    1.008    Y    Y      Y    6-31g**
  H62       1.597  1.150  0.320    1.008    Y    Y      Y    6-31g**
  H63       1.597  1.150  0.320    1.008    Y    Y      Y    6-31g**
  H64       1.597  1.150  0.320    1.008    Y    Y      Y    6-31g**
  H65       1.597  1.150  0.320    1.008    Y    Y      Y    6-31g**
  C66       1.949  1.900  0.770   12.000    Y    Y      Y    6-31g**
  C67       1.949  1.900  0.770   12.000    Y    Y      Y    6-31g**
  C68       1.949  1.900  0.770   12.000    Y    Y      Y    6-31g**
  C69       1.949  1.900  0.770   12.000    Y    Y      Y    6-31g**
  C70       1.949  1.900  0.770   12.000    Y    Y      Y    6-31g**
  C71       1.949  1.900  0.770   12.000    Y    Y      Y    6-31g**
  H72       1.597  1.150  0.320    1.008    Y    Y      Y    6-31g**
  H73       1.597  1.150  0.320    1.008    Y    Y      Y    6-31g**
  H74       1.597  1.150  0.320    1.008    Y    Y      Y    6-31g**
  H75       1.597  1.150  0.320    1.008    Y    Y      Y    6-31g**
  H76       1.597  1.150  0.320    1.008    Y    Y      Y    6-31g**
  C77       1.949  1.900  0.770   12.000    Y    Y      Y    6-31g**
  C78       1.949  1.900  0.770   12.000    Y    Y      Y    6-31g**
  C79       1.949  1.900  0.770   12.000    Y    Y      Y    6-31g**
  C80       1.949  1.900  0.770   12.000    Y    Y      Y    6-31g**
  C81       1.949  1.900  0.770   12.000    Y    Y      Y    6-31g**
  C82       1.949  1.900  0.770   12.000    Y    Y      Y    6-31g**
  H83       1.597  1.150  0.320    1.008    Y    Y      Y    6-31g**
  H84       1.597  1.150  0.320    1.008    Y    Y      Y    6-31g**
  H85       1.597  1.150  0.320    1.008    Y    Y      Y    6-31g**
  H86       1.597  1.150  0.320    1.008    Y    Y      Y    6-31g**
  H87       1.597  1.150  0.320    1.008    Y    Y      Y    6-31g**
  C88       1.949  1.900  0.770   12.000    Y    Y      Y    6-31g**
  C89       1.949  1.900  0.770   12.000    Y    Y      Y    6-31g**
  C90       1.949  1.900  0.770   12.000    Y    Y      Y    6-31g**
  C91       1.949  1.900  0.770   12.000    Y    Y      Y    6-31g**
  C92       1.949  1.900  0.770   12.000    Y    Y      Y    6-31g**
  C93       1.949  1.900  0.770   12.000    Y    Y      Y    6-31g**
  H94       1.597  1.150  0.320    1.008    Y    Y      Y    6-31g**
  H95       1.597  1.150  0.320    1.008    Y    Y      Y    6-31g**
  H96       1.597  1.150  0.320    1.008    Y    Y      Y    6-31g**
  H97       1.597  1.150  0.320    1.008    Y    Y      Y    6-31g**
  H98       1.597  1.150  0.320    1.008    Y    Y      Y    6-31g**
  O99       1.702  1.600  0.730   15.995    Y    Y      Y    6-31g**
  O100      1.702  1.600  0.730   15.995    Y    Y      Y    6-31g**
  P101      2.147  2.074  1.060   30.974    Y    Y      Y    6-31g**
  O102      1.702  1.600  0.730   15.995    Y    Y      Y    6-31g**
  N103      1.831  1.600  0.750   14.003    Y    Y      Y    6-31g**
  H104      1.597  1.150  0.320    1.008    Y    Y      Y    6-31g**
  C105      1.949  1.900  0.770   12.000    Y    Y      Y    6-31g**
  C106      1.949  1.900  0.770   12.000    Y    Y      Y    6-31g**
  C107      1.949  1.900  0.770   12.000    Y    Y      Y    6-31g**
  C108      1.949  1.900  0.770   12.000    Y    Y      Y    6-31g**
  C109      1.949  1.900  0.770   12.000    Y    Y      Y    6-31g**
  C110      1.949  1.900  0.770   12.000    Y    Y      Y    6-31g**
  C111      1.949  1.900  0.770   12.000    Y    Y      Y    6-31g**
  H112      1.597  1.150  0.320    1.008    Y    Y      Y    6-31g**
  H113      1.597  1.150  0.320    1.008    Y    Y      Y    6-31g**
  H114      1.597  1.150  0.320    1.008    Y    Y      Y    6-31g**
  H115      1.597  1.150  0.320    1.008    Y    Y      Y    6-31g**
  H116      1.597  1.150  0.320    1.008    Y    Y      Y    6-31g**
  H117      1.597  1.150  0.320    1.008    Y    Y      Y    6-31g**
  N118      1.831  1.600  0.750   14.003    Y    Y      Y    6-31g**
  S119      2.070  1.900  1.020   31.972    Y    Y      Y    6-31g**
  O120      1.702  1.600  0.730   15.995    Y    Y      Y    6-31g**
  O121      1.702  1.600  0.730   15.995    Y    Y      Y    6-31g**
  C122      1.949  1.900  0.770   12.000    Y    Y      Y    6-31g**
  F123      1.736  1.682  0.720   18.998    Y    Y      Y    6-31g**
  F124      1.736  1.682  0.720   18.998    Y    Y      Y    6-31g**
  F125      1.736  1.682  0.720   18.998    Y    Y      Y    6-31g**
  C126      1.949  1.900  0.770   12.000    Y    Y      Y    6-31g**
  C127      1.949  1.900  0.770   12.000    Y    Y      Y    6-31g**
  C128      1.949  1.900  0.770   12.000    Y    Y      Y    6-31g**
  C129      1.949  1.900  0.770   12.000    Y    Y      Y    6-31g**
  N130      1.831  1.600  0.750   14.003    Y    Y      Y    6-31g**
  H131      1.597  1.150  0.320    1.008    Y    Y      Y    6-31g**
  H132      1.597  1.150  0.320    1.008    Y    Y      Y    6-31g**
  H133      1.597  1.150  0.320    1.008    Y    Y      Y    6-31g**
  H134      1.597  1.150  0.320    1.008    Y    Y      Y    6-31g**
  H135      1.597  1.150  0.320    1.008    Y    Y      Y    6-31g**
  S136      2.070  1.900  1.020   31.972    Y    Y      Y    6-31g**
  O137      1.702  1.600  0.730   15.995    Y    Y      Y    6-31g**
  O138      1.702  1.600  0.730   15.995    Y    Y      Y    6-31g**
  C139      1.949  1.900  0.770   12.000    Y    Y      Y    6-31g**
  C140      1.949  1.900  0.770   12.000    Y    Y      Y    6-31g**
  N141      1.831  1.600  0.750   14.003    Y    Y      Y    6-31g**
  C142      1.949  1.900  0.770   12.000    Y    Y      Y    6-31g**
  C143      1.949  1.900  0.770   12.000    Y    Y      Y    6-31g**
  C144      1.949  1.900  0.770   12.000    Y    Y      Y    6-31g**
  H145      1.597  1.150  0.320    1.008    Y    Y      Y    6-31g**
  H146      1.597  1.150  0.320    1.008    Y    Y      Y    6-31g**
  H147      1.597  1.150  0.320    1.008    Y    Y      Y    6-31g**
  H148      1.597  1.150  0.320    1.008    Y    Y      Y    6-31g**
  
  Peak memory usage:    768 Mb
  
  end of program pre
   
 Time(pre)  user:        0.9  user+sys:        0.9  wallclock:        1.5
  
  start of program onee
  
  smallest eigenvalue of S:    2.219E-04
  number of canonical orbitals.....         1672
  Peak memory usage:    900 Mb
  
  end of program onee
   
 Time(onee)  user:       16.9  user+sys:       16.9  wallclock:       18.6
  
  start of program hfig
  
  initial wavefunction generated automatically from atomic wavefunctions
 
  Irreducible     Total no   No of occupied orbitals 
  representation  orbitals   Shell_1  Shell_2    ...
  No Symm         1672        340
  ------------------------
  Orbital occupation/shell    1.000
 
  Peak memory usage:    833 Mb
  
  end of program hfig
   
 Time(hfig)  user:       27.4  user+sys:       27.4  wallclock:       28.7
  
  start of program probe
  
  Peak memory usage:    826 Mb
  
  end of program probe
   
 Time(probe)  user:       18.6  user+sys:       18.6  wallclock:       19.1
  
  start of program grid
  
   grid     grid set  grid #  grid sym
  ------    --------  ------  --------
  coarse        0        0        1
  medium        2        1        1
  fine          0        0        1
  ultrafine     4        2        1
  charge       -1        3        1
  gradient      4        2        1
  density       0        0        1
  DFT-fine    -13        4        1
  DFT-med.    -13        4        1
  DFT-grad    -13        4        1
  DFT-der2      0        0        1
  DFT-cphf      0        0        1
  LMP2-enrg     4        2        1
  LMP2-grad     2        1        1
  DFT-cphf2     0        0        1
  PBF-dens      0        0        1
  plotting      0        0        1
  Rel-grad    -17        0        1
  
  number of gridpoints: 
     atom        C1       C2       C3       C4       H5       C6       C7
  grid # 1      100       94      100       97      111       93      100
  grid # 2      356      338      360      359      427      335      360
  grid # 3       13       28       12       19      184       18        8
  grid # 4    48124    48124    48124    48124    48426    48124    48124
   
  number of gridpoints: 
     atom        C8       C9      H10      C11      C12      C13      C14
  grid # 1       95      100      110      102      102       98       94
  grid # 2      356      352      422      359      366      339      338
  grid # 3       12        6      172       29       44       47       47
  grid # 4    48124    48124    48426    48124    48124    48124    48124
   
  number of gridpoints: 
     atom       C15      C16      H17      H18      H19      H20      C21
  grid # 1       95       96      118      118      118      112      101
  grid # 2      338      338      443      450      448      432      364
  grid # 3       38       30      361      417      407      221       26
  grid # 4    48124    48124    48426    48426    48426    48426    48124
   
  number of gridpoints: 
     atom       C22      C23      C24      C25      C26      H27      H28
  grid # 1      101       96       93       94       95      111      118
  grid # 2      357      336      336      335      336      433      451
  grid # 3        6       22       36       43       36      221      416
  grid # 4    48124    48124    48124    48124    48124    48426    48426
   
  number of gridpoints: 
     atom       H29      H30     Si31     Si32      C33      C34      C35
  grid # 1      118      118      477      475       93       92       92
  grid # 2      453      445      477      475      334      333      332
  grid # 3      423      355        9        9       31       24        9
  grid # 4    48426    48426    38542    38542    48124    48124    48124
   
  number of gridpoints: 
     atom       C36      C37      C38      H39      H40      H41      H42
  grid # 1      101       96       93      117      114      112      110
  grid # 2      355      336      334      451      442      428      422
  grid # 3        9       16       25      373      303      239      160
  grid # 4    48124    48124    48124    48426    48426    48426    48426
   
  number of gridpoints: 
     atom       H43      C44      C45      C46      C47      C48      C49
  grid # 1      115       94       94       92      100       96       94
  grid # 2      443      333      334      336      359      337      333
  grid # 3      311       31       31       19       21       22       31
  grid # 4    48426    48124    48124    48124    48124    48124    48124
   
  number of gridpoints: 
     atom       H50      H51      H52      H53      H54      C55      C56
  grid # 1      114      117      109      106      112       94       94
  grid # 2      443      451      426      412      435      336      335
  grid # 3      293      380      194       97      245       47       46
  grid # 4    48426    48426    48426    48426    48426    48124    48124
   
  number of gridpoints: 
     atom       C57      C58      C59      C60      H61      H62      H63
  grid # 1       92      101       97       93      118      118      112
  grid # 2      338      361      335      337      453      452      433
  grid # 3       29       22       31       39      425      417      248
  grid # 4    48124    48124    48124    48124    48426    48426    48426
   
  number of gridpoints: 
     atom       H64      H65      C66      C67      C68      C69      C70
  grid # 1      111      118       93       93       92       99       94
  grid # 2      423      452      332      333      334      358      335
  grid # 3      190      417       27       23       17        9       15
  grid # 4    48426    48426    48124    48124    48124    48124    48124
   
  number of gridpoints: 
     atom       C71      H72      H73      H74      H75      H76      C77
  grid # 1       93      116      113      106      112      117       93
  grid # 2      332      446      434      415      431      445      335
  grid # 3       22      331      241       94      246      332       38
  grid # 4    48124    48426    48426    48426    48426    48426    48124
   
  number of gridpoints: 
     atom       C78      C79      C80      C81      C82      H83      H84
  grid # 1       93       92      100       94       92      118      116
  grid # 2      335      334      358      328      334      452      445
  grid # 3       36       23        8       12       29      414      324
  grid # 4    48124    48124    48124    48124    48124    48426    48426
   
  number of gridpoints: 
     atom       H85      H86      H87      C88      C89      C90      C91
  grid # 1      104      110      118       94       94       92      101
  grid # 2      408      432      450      335      335      336      361
  grid # 3       72      210      398       48       42       21       18
  grid # 4    48426    48426    48426    48124    48124    48124    48124
   
  number of gridpoints: 
     atom       C92      C93      H94      H95      H96      H97      H98
  grid # 1       97       94      118      118      112      112      118
  grid # 2      339      337      453      452      430      430      453
  grid # 3       38       45      424      415      228      229      425
  grid # 4    48124    48124    48426    48426    48426    48426    48426
   
  number of gridpoints: 
     atom       O99     O100     P101     O102     N103     H104     C105
  grid # 1      112      112      443      114       97       99       90
  grid # 2      431      438      443      451      350      394      316
  grid # 3       19       60        6       91       12       61        6
  grid # 4    47716    47716    38640    47716    47928    48426    48124
   
  number of gridpoints: 
     atom      C106     C107     C108     C109     C110     C111     H112
  grid # 1       96       96       95      100       95       96      117
  grid # 2      329      329      332      359      328      332      450
  grid # 3       26       24       16       10       18       29      391
  grid # 4    48124    48124    48124    48124    48124    48124    48426
   
  number of gridpoints: 
     atom      H113     H114     H115     H116     H117     N118     S119
  grid # 1      112      106      110      117      101      108      438
  grid # 2      435      415      430      450      400      401      438
  grid # 3      263      105      205      402       57       15       10
  grid # 4    48426    48426    48426    48426    48426    47928    48492
   
  number of gridpoints: 
     atom      O120     O121     C122     F123     F124     F125     C126
  grid # 1      117      117       90      515      521      531       90
  grid # 2      479      464      320      515      521      531      313
  grid # 3       91       86        7       61      158      248        6
  grid # 4    47716    47716    48124    47062    47062    47062    48124
   
  number of gridpoints: 
     atom      C127     C128     C129     N130     H131     H132     H133
  grid # 1       93       92       92       98      103      112      118
  grid # 2      328      331      331      342      410      438      459
  grid # 3       16       23       10        7       91      273      446
  grid # 4    48124    48124    48124    47928    48426    48426    48426
   
  number of gridpoints: 
     atom      H134     H135     S136     O137     O138     C139     C140
  grid # 1      113      101      436      122      118       96       96
  grid # 2      439      387      436      501      480      330      337
  grid # 3      261       68       11      250      171       36       30
  grid # 4    48426    48426    48492    47716    47716    48124    48124
   
  number of gridpoints: 
     atom      N141     C142     C143     C144     H145     H146     H147
  grid # 1      110       98       96       96      112      111      114
  grid # 2      403      358      330      332      438      430      443
  grid # 3       56       28       36       40      261      212      330
  grid # 4    47928    48124    48124    48124    48426    48426    48426
   
  number of gridpoints: 
     atom      H148    total
  grid # 1      118    18349
  grid # 2      452    57774
  grid # 3      413    18896
  grid # 4    48426  7104526
   
  Peak memory usage:    795 Mb
  
  end of program grid
   
 Time(grid)  user:     1171.7  user+sys:     1171.7  wallclock:     1194.0
  
  start of program rwr
  
  Peak memory usage:    814 Mb
  
  end of program rwr
   
 Time(rwr)  user:       64.2  user+sys:       64.2  wallclock:       71.1
  
  start of program scf
  
 number of electrons..........        680
 number of alpha electrons....        340
 number of beta electrons.....        340
 number of orbitals, total....       1672
 number of doubly-occ'd orbs..        340
 number of open shell orbs....          0
 number of occupied orbitals..        340
 number of virtual orbitals...       1332
 number of hamiltonians.......          1
 number of shells.............          1
 SCF type: DFT=M06-2X
 Energy computed with NOPS off.
  
       i  u  d  i  g                   
       t  p  i  c  r                                 RMS    maximum
       e  d  i  u  i                       energy  density   DIIS  
       r  t  s  t  d       total energy    change  change    error 
  
etot    1  N  N  1  U   -5562.73550290626           4.2E-03  8.6E-02
etot    2  N  Y  1  U   -5527.58007302742 -3.5E+01  2.2E-02  1.2E-01
etot    3  N  Y  1  U   -5252.80024308452 -2.7E+02  2.1E-02  3.8E-01
etot    4  N  Y  1  U   -5562.20493751395  3.1E+02  5.2E-03  1.1E-01
etot    5  N  Y  1  U   -5553.35481967791 -8.9E+00  4.5E-03  9.2E-02
etot    6  N  Y  1  U   -5572.94635154661  2.0E+01  1.2E-03  4.8E-02
etot    7  N  Y  1  U   -5575.03889638364  2.1E+00  5.3E-04  4.3E-02
etot    8  N  Y  1  U   -5575.55437454530  5.2E-01  1.6E-04  9.8E-03
etot    9  N  Y  1  U   -5575.57073520259  1.6E-02  6.9E-05  4.8E-03
etot   10  N  Y  1  U   -5575.57847373120  7.7E-03  2.2E-05  9.2E-04
etot   11  N  Y  1  U   -5575.57895556823  4.8E-04  1.1E-05  5.4E-04
etot   12  N  Y  1  U   -5575.57916953603  2.1E-04  6.5E-06  2.0E-04
etot   13  N  Y  1  U   -5575.57922163913  5.2E-05  3.0E-06  1.3E-04
etot   14  N  N  1  U   -5575.57923417878  1.3E-05  0.0E+00  0.0E+00
  
  
 Energy components, in hartrees:
   (A)  Nuclear repulsion............   20890.75331099789
   (E)  Total one-electron terms.....  -49308.82583642530
   (F)    Electron-nuclear...........  -54844.80112720507
   (H)    Kinetic....................    5535.97529077977
   (I)  Total two-electron terms.....   22842.49329124863
   (J)    Coulomb....................   23493.80404863407
   (K)    Exchange+Correlation.......    -651.31075738544
   (L)  Electronic energy............  -26466.33254517667  (E+I)
   (M)  -V/T.........................       2.00715392344  (-(A+F+I)/H)
   (N)  Total energy.................   -5575.57923417878  (A+L)
   (O)  Gas phase energy.............   -5575.57923417878
  
 SCFE: SCF energy: DFT(m06-2x)     -5575.57923417878 hartrees   iterations:  14
  
 
 HOMO energy:    -0.25511
 LUMO energy:    -0.06003
 
  Orbital energies (hartrees): 
   -90.15781   -90.15319   -78.21656   -67.01299   -67.00498   -25.28834
   -25.28728   -25.28685   -19.69567   -19.69097   -19.63568   -19.63284
   -19.62658   -19.62293   -19.61284   -14.84332   -14.78946   -14.78322
   -14.74293   -10.80401   -10.65964   -10.62918   -10.62248   -10.62247
   -10.62238   -10.62154   -10.60563   -10.60290   -10.59320   -10.58648
   -10.57960   -10.57706   -10.57426   -10.57262   -10.57047   -10.56834
   -10.56345   -10.56147   -10.56110   -10.55893   -10.55886   -10.55562
   -10.55545   -10.55533   -10.55461   -10.55352   -10.55330   -10.55324
   -10.55312   -10.55310   -10.55291   -10.55291   -10.55261   -10.55257
   -10.55207   -10.55177   -10.55146   -10.55124   -10.55108   -10.55058
   -10.55051   -10.55031   -10.55017   -10.54818   -10.54792   -10.54787
   -10.54776   -10.54765   -10.54740   -10.54650   -10.54622   -10.54610
   -10.54521   -10.54516   -10.54514   -10.54470   -10.54325   -10.54267
   -10.54198   -10.54198   -10.54110   -10.53869   -10.53694   -10.53553
   -10.53499   -10.53459   -10.53427   -10.53204   -10.53000   -10.52943
   -10.52890   -10.52037    -8.46712    -8.46139    -6.99553    -6.38929
    -6.38865    -6.38787    -6.38326    -6.38299    -6.38276    -5.54372
    -5.53616    -5.11416    -5.11298    -5.11144    -3.85354    -3.85329
    -3.85294    -3.84601    -3.84555    -3.84545    -1.45426    -1.36329
    -1.36222    -1.23259    -1.23014    -1.21570    -1.18990    -1.13387
    -1.11671    -1.10213    -1.09592    -1.07751    -1.03237    -0.98972
    -0.98129    -0.96806    -0.95706    -0.94791    -0.94466    -0.94146
    -0.93861    -0.93829    -0.92858    -0.92318    -0.92132    -0.92026
    -0.91266    -0.89835    -0.89131    -0.88255    -0.85479    -0.84848
    -0.84782    -0.84071    -0.83997    -0.83871    -0.83810    -0.83700
    -0.83301    -0.83170    -0.83130    -0.83093    -0.82934    -0.82504
    -0.82478    -0.82472    -0.82405    -0.81962    -0.81455    -0.80245
    -0.79269    -0.76258    -0.75112    -0.73431    -0.73083    -0.71506
    -0.70910    -0.70533    -0.69809    -0.69787    -0.69155    -0.69140
    -0.68431    -0.68336    -0.68210    -0.67905    -0.67851    -0.67675
    -0.67589    -0.67531    -0.67487    -0.67436    -0.66938    -0.66920
    -0.66677    -0.66244    -0.66120    -0.65791    -0.65263    -0.65127
    -0.64813    -0.64108    -0.63657    -0.62769    -0.61052    -0.60346
    -0.60084    -0.59876    -0.59506    -0.58543    -0.58339    -0.58033
    -0.58018    -0.57905    -0.57647    -0.57620    -0.56953    -0.56841
    -0.56561    -0.56231    -0.56086    -0.55744    -0.55553    -0.54926
    -0.54595    -0.54114    -0.53952    -0.53742    -0.53592    -0.53376
    -0.52915    -0.52822    -0.52505    -0.52287    -0.52136    -0.52017
    -0.51886    -0.51842    -0.51671    -0.51559    -0.51386    -0.51099
    -0.50900    -0.50558    -0.50381    -0.50239    -0.50187    -0.50139
    -0.49867    -0.49834    -0.49781    -0.49643    -0.49531    -0.49447
    -0.49331    -0.49104    -0.49025    -0.48915    -0.48752    -0.48659
    -0.48550    -0.48416    -0.48325    -0.48276    -0.47941    -0.47914
    -0.47674    -0.47636    -0.47003    -0.46785    -0.46564    -0.45854
    -0.45734    -0.45528    -0.45497    -0.45040    -0.44842    -0.44658
    -0.44473    -0.44067    -0.43685    -0.43442    -0.42961    -0.42726
    -0.42512    -0.42409    -0.42262    -0.41918    -0.41880    -0.41742
    -0.41193    -0.41090    -0.40763    -0.40629    -0.40385    -0.40129
    -0.39839    -0.39784    -0.39640    -0.39402    -0.39195    -0.38967
    -0.38957    -0.38872    -0.38871    -0.38770    -0.38566    -0.38356
    -0.38265    -0.37851    -0.37652    -0.37493    -0.37343    -0.36959
    -0.36173    -0.35955    -0.35704    -0.35458    -0.35270    -0.34591
    -0.34478    -0.34437    -0.34055    -0.33915    -0.33618    -0.33403
    -0.33090    -0.32661    -0.32429    -0.31887    -0.30626    -0.30382
    -0.30368    -0.30121    -0.29987    -0.29829    -0.29803    -0.29595
    -0.29570    -0.29382    -0.29234    -0.29151    -0.28784    -0.28510
    -0.28267    -0.27816    -0.27436    -0.25511    -0.06003    -0.02080
    -0.01426    -0.00021     0.00398     0.00661     0.01189     0.01489
     0.02500     0.02699
 
  Peak memory usage:   1028 Mb
  
  end of program scf
   
 Time(scf)  user:    31558.3  user+sys:    31558.3  wallclock:    31930.1
  
  start of program ch
  
  gridpoints used for charge fit        16344
    out of a possible maximum of        18896
  
   Electrostatic potential fitting constrained to reproduce
     total charge:                yes
     dipole moment:               no 
     traceless quadrupole moment: no 
     traceless octapole moment:   no 
  
  Atomic charges from electrostatic potential: 
   
 Atom       C1           C2           C3           C4           H5      
 Charge   -0.21440     -0.42292      0.13068      0.14389      0.20275
   
 Atom       C6           C7           C8           C9           H10     
 Charge   -0.34897      0.02288      0.03475      0.14140      0.16862
   
 Atom       C11          C12          C13          C14          C15     
 Charge    0.11250      0.21073     -0.22756     -0.11596     -0.15249
   
 Atom       C16          H17          H18          H19          H20     
 Charge   -0.15473      0.14387      0.13319      0.14166      0.12056
   
 Atom       C21          C22          C23          C24          C25     
 Charge    0.20289     -0.00057     -0.17832     -0.14630     -0.10540
   
 Atom       C26          H27          H28          H29          H30     
 Charge   -0.23491      0.14341      0.14022      0.13175      0.15077
   
 Atom       Si31         Si32         C33          C34          C35     
 Charge   -0.16255      0.12375     -0.15165     -0.16151     -0.11426
   
 Atom       C36          C37          C38          H39          H40     
 Charge    0.27512     -0.29691     -0.06981      0.13675      0.12233
   
 Atom       H41          H42          H43          C44          C45     
 Charge    0.08863      0.15404      0.11951     -0.12436     -0.13673
   
 Atom       C46          C47          C48          C49          H50     
 Charge   -0.16407      0.12898     -0.15207     -0.14196      0.10790
   
 Atom       H51          H52          H53          H54          C55     
 Charge    0.12899      0.13574      0.12403      0.12497     -0.15263
   
 Atom       C56          C57          C58          C59          C60     
 Charge   -0.14589     -0.11536      0.13810     -0.26148     -0.06855
   
 Atom       H61          H62          H63          H64          H65     
 Charge    0.13443      0.13779      0.08654      0.15428      0.11735
   
 Atom       C66          C67          C68          C69          C70     
 Charge   -0.16013     -0.12856     -0.09361      0.06782     -0.26860
   
 Atom       C71          H72          H73          H74          H75     
 Charge   -0.04465      0.13524      0.12123      0.09498      0.13766
   
 Atom       H76          C77          C78          C79          C80     
 Charge    0.11306     -0.10576     -0.16615     -0.13184      0.03111
   
 Atom       C81          C82          H83          H84          H85     
 Charge   -0.03229     -0.18519      0.12864      0.12173      0.11760
   
 Atom       H86          H87          C88          C89          C90     
 Charge    0.08940      0.13337     -0.11605     -0.18742     -0.08085
   
 Atom       C91          C92          C93          H94          H95     
 Charge    0.02575     -0.14636     -0.13034      0.12833      0.14104
   
 Atom       H96          H97          H98          O99          O100    
 Charge    0.10686      0.09177      0.13199     -0.33845     -0.28520
   
 Atom       P101         O102         N103         H104         C105    
 Charge    1.04667     -0.59998     -0.76051      0.50030      0.26372
   
 Atom       C106         C107         C108         C109         C110    
 Charge   -0.19432     -0.11448     -0.18726      0.27898     -0.35469
   
 Atom       C111         H112         H113         H114         H115    
 Charge   -0.06051      0.14522      0.13533      0.05465      0.22644
   
 Atom       H116         H117         N118         S119         O120    
 Charge    0.12618      0.02074     -0.64290      0.81133     -0.44287
   
 Atom       O121         C122         F123         F124         F125    
 Charge   -0.54820      0.35344     -0.09066     -0.10913     -0.12671
   
 Atom       C126         C127         C128         C129         N130    
 Charge    0.22973     -0.24937     -0.21665      0.04679     -0.02851
   
 Atom       H131         H132         H133         H134         H135    
 Charge    0.05063      0.24467      0.19144      0.16788      0.22639
   
 Atom       S136         O137         O138         C139         C140    
 Charge    0.72556     -0.43172     -0.47958     -0.33590      0.34603
   
 Atom       N141         C142         C143         C144         H145    
 Charge   -0.49344      0.41229     -0.34710      0.07913      0.16936
   
 Atom       H146         H147         H148    
 Charge    0.03076      0.19331      0.12797
  
  sum of atomic charges:     0.000000
   
 RMS Error   1.00E-03 hartrees
 
  Peak memory usage:    816 Mb
  
  end of program ch
   
 Time(ch)  user:       16.0  user+sys:       16.0  wallclock:       18.4
  
  start of program post
  
  Writing input files for PBF
  Peak memory usage:    759 Mb
  
  end of program post
   
 Time(post)  user:        0.6  user+sys:        0.6  wallclock:        0.8

  start of program pbf

Pbf Version 4.10

Molecular surface area:      834.34935   [A2]
Reaction field energy:       -18.72542   [kT]
  Peak memory usage: 722 Mb

  end of program pbf

 Time(pbf)  user:        5.7  user+sys:        5.8  wallclock:        5.8
  
  start of program solv
  
   number of surface charges from PBF   13186
   sum of surface charges     -0.00023
   
  nuclear repulsion energy.......   20890.753310998 hartrees
  Peak memory usage:    894 Mb
  
  end of program solv
   
 Time(solv)  user:       32.0  user+sys:       32.0  wallclock:       32.1
  
  start of program scf
  
 Energy computed with NOPS off.
  
       i  u  d  i  g                   
       t  p  i  c  r                                 RMS    maximum
       e  d  i  u  i                       energy  density   DIIS  
       r  t  s  t  d       total energy    change  change    error 
  
etot    1  N  N  1  U   -5575.61813801471           5.4E-05  7.5E-04
etot    2  N  Y  1  U   -5575.61899058286  8.5E-04  1.7E-05  5.9E-04
etot    3  N  Y  1  U   -5575.61924429893  2.5E-04  5.5E-06  2.8E-04
etot    4  N  Y  1  U   -5575.61930638848  6.2E-05  2.1E-06  6.3E-05
etot    5  N  N  1  U   -5575.61931136126  5.0E-06  0.0E+00  0.0E+00
  
  
 Energy components, in hartrees:
   (A)  Total zero-electron terms....   20893.42823493009
   (B)    Nuclear-nuclear............   20890.75331099789
   (C)    Nuclear-solvent............       2.67492393220
   (E)  Total one-electron terms.....  -49313.05033536851
   (F)    Electron-nuclear...........  -54846.36586464915
   (G)    Electron-solvent...........      -2.71617866917
   (H)    Kinetic....................    5536.03170794982
   (I)  Total two-electron terms.....   22844.00278907716
   (J)    Coulomb....................   23495.33507338023
   (K)    Exchange+Correlation.......    -651.33228430308
   (L)  Electronic energy............  -26469.04754629135  (E+I)
   (N)  Total quantum mech. energy...   -5575.61931136126  (A+L)
   (O)  Gas phase energy.............   -5575.57923417878
   (P)  Solution phase energy........   -5575.59868399278  (Q+R+S)
   (Q)    Total solute energy........   -5575.57805662429  (N-C-G)
   (R)    Total solvent energy.......      -0.02062736849  (C/2+G/2)
   (S)    Solute cavity energy.......       0.00000000000
   (U)  Reorganization energy........       0.00117755449  (Q-O)
   (V)  Solvation energy.............      -0.01944981399  (P-O)
  
 SCFE:  Solution phase energy: DFT(m06-2x)      -5575.59868399278 hartrees
        SCF iterations:   5
  
 
 HOMO energy:    -0.25663
 LUMO energy:    -0.05659
 
  Orbital energies (hartrees): 
   -90.16562   -90.15766   -78.21918   -67.01407   -67.00832   -25.29269
   -25.29239   -25.29228   -19.69764   -19.69365   -19.64519   -19.64162
   -19.63334   -19.62679   -19.61471   -14.84024   -14.79043   -14.78868
   -14.74664   -10.80845   -10.65479   -10.63070   -10.62465   -10.62464
   -10.62414   -10.62022   -10.60500   -10.59869   -10.58709   -10.58386
   -10.57880   -10.57543   -10.57514   -10.57355   -10.57178   -10.56995
   -10.56454   -10.56297   -10.56240   -10.56090   -10.56021   -10.55579
   -10.55552   -10.55462   -10.55395   -10.55390   -10.55380   -10.55370
   -10.55337   -10.55306   -10.55303   -10.55262   -10.55248   -10.55212
   -10.55188   -10.55185   -10.55120   -10.55109   -10.55080   -10.55070
   -10.55063   -10.55051   -10.55047   -10.54988   -10.54947   -10.54892
   -10.54884   -10.54809   -10.54779   -10.54767   -10.54764   -10.54744
   -10.54736   -10.54718   -10.54679   -10.54655   -10.54637   -10.54492
   -10.54375   -10.54351   -10.54190   -10.54044   -10.53993   -10.53921
   -10.53865   -10.53832   -10.53481   -10.53455   -10.53307   -10.53289
   -10.53168   -10.52437    -8.47492    -8.46585    -6.99814    -6.39708
    -6.39652    -6.39560    -6.38770    -6.38748    -6.38722    -5.54479
    -5.53949    -5.11676    -5.11560    -5.11405    -3.85462    -3.85436
    -3.85401    -3.84933    -3.84888    -3.84878    -1.45914    -1.36866
    -1.36665    -1.23881    -1.23510    -1.22032    -1.19218    -1.13115
    -1.12596    -1.10711    -1.09786    -1.07843    -1.03693    -0.99273
    -0.98336    -0.96942    -0.95784    -0.94864    -0.94473    -0.94433
    -0.94088    -0.93945    -0.93260    -0.92412    -0.91909    -0.91777
    -0.91384    -0.89825    -0.89282    -0.88255    -0.85591    -0.84891
    -0.84734    -0.84267    -0.84061    -0.84028    -0.83857    -0.83699
    -0.83552    -0.83371    -0.83312    -0.83109    -0.83013    -0.82783
    -0.82721    -0.82678    -0.82540    -0.82325    -0.81834    -0.80370
    -0.79470    -0.76544    -0.75182    -0.73414    -0.73326    -0.71498
    -0.70971    -0.70574    -0.69987    -0.69670    -0.69308    -0.69144
    -0.68628    -0.68359    -0.68306    -0.68225    -0.68070    -0.67839
    -0.67753    -0.67621    -0.67510    -0.67369    -0.67150    -0.66990
    -0.66679    -0.66424    -0.66258    -0.66062    -0.65506    -0.65369
    -0.64827    -0.64337    -0.63838    -0.62925    -0.61096    -0.60538
    -0.60226    -0.60082    -0.59726    -0.58595    -0.58386    -0.58348
    -0.58142    -0.57951    -0.57743    -0.57669    -0.57264    -0.56878
    -0.56627    -0.56369    -0.56240    -0.56023    -0.56021    -0.55014
    -0.54631    -0.54272    -0.54105    -0.53945    -0.53760    -0.53476
    -0.52997    -0.52919    -0.52871    -0.52626    -0.52372    -0.52167
    -0.52001    -0.51956    -0.51848    -0.51735    -0.51467    -0.51337
    -0.51110    -0.50696    -0.50503    -0.50400    -0.50269    -0.50159
    -0.50094    -0.50007    -0.49851    -0.49731    -0.49688    -0.49549
    -0.49339    -0.49145    -0.49096    -0.48959    -0.48920    -0.48720
    -0.48549    -0.48485    -0.48382    -0.48177    -0.48136    -0.47964
    -0.47778    -0.47716    -0.47228    -0.47041    -0.46740    -0.45801
    -0.45705    -0.45660    -0.45503    -0.45197    -0.44969    -0.44735
    -0.44366    -0.44290    -0.43814    -0.43547    -0.43064    -0.42904
    -0.42710    -0.42621    -0.42514    -0.42190    -0.42082    -0.41916
    -0.41589    -0.41478    -0.41082    -0.40839    -0.40712    -0.40370
    -0.39993    -0.39867    -0.39726    -0.39554    -0.39339    -0.39190
    -0.39147    -0.39065    -0.39016    -0.38959    -0.38917    -0.38682
    -0.38487    -0.38274    -0.38014    -0.38005    -0.37790    -0.37251
    -0.36360    -0.36000    -0.35823    -0.35464    -0.35309    -0.34766
    -0.34643    -0.34540    -0.34221    -0.34094    -0.33860    -0.33693
    -0.33427    -0.32956    -0.32689    -0.32115    -0.30743    -0.30569
    -0.30543    -0.30273    -0.30148    -0.30136    -0.29903    -0.29861
    -0.29722    -0.29499    -0.29414    -0.29367    -0.28972    -0.28674
    -0.28631    -0.28175    -0.27594    -0.25663    -0.05659    -0.02226
    -0.01496    -0.00212     0.00421     0.00510     0.01114     0.01269
     0.02362     0.02460
 
  Peak memory usage:   1029 Mb
  
  end of program scf
   
 Time(scf)  user:     8773.8  user+sys:     8773.8  wallclock:     8846.4
  
  start of program sole
  
    SCRF                   solvation energy
  iteration          Hartrees            kcal/mol
     0               0.0000000            0.0000
     1              -0.0194498          -12.2049
  
  solvation energy not yet converged... 
  
  Peak memory usage:    813 Mb
  
  end of program sole
   
 Time(sole)  user:        0.1  user+sys:        0.1  wallclock:        0.1
  
  start of program ch
  
  gridpoints used for charge fit        16344
    out of a possible maximum of        16344
  
   Electrostatic potential fitting constrained to reproduce
     total charge:                yes
     dipole moment:               no 
     traceless quadrupole moment: no 
     traceless octapole moment:   no 
  
  Atomic charges from electrostatic potential: 
   
 Atom       C1           C2           C3           C4           H5      
 Charge   -0.21316     -0.44949      0.15783      0.13201      0.21398
   
 Atom       C6           C7           C8           C9           H10     
 Charge   -0.36985      0.04504      0.02699      0.13993      0.17552
   
 Atom       C11          C12          C13          C14          C15     
 Charge    0.10928      0.22120     -0.24021     -0.11914     -0.16147
   
 Atom       C16          H17          H18          H19          H20     
 Charge   -0.15377      0.15168      0.14126      0.15036      0.12200
   
 Atom       C21          C22          C23          C24          C25     
 Charge    0.21128     -0.00711     -0.17657     -0.15463     -0.10977
   
 Atom       C26          H27          H28          H29          H30     
 Charge   -0.24544      0.14430      0.14866      0.13985      0.15810
   
 Atom       Si31         Si32         C33          C34          C35     
 Charge   -0.19029      0.09887     -0.16039     -0.16765     -0.11457
   
 Atom       C36          C37          C38          H39          H40     
 Charge    0.28689     -0.31026     -0.07335      0.14432      0.13049
   
 Atom       H41          H42          H43          C44          C45     
 Charge    0.09106      0.15553      0.12268     -0.13848     -0.13765
   
 Atom       C46          C47          C48          C49          H50     
 Charge   -0.18185      0.14270     -0.16237     -0.14446      0.11955
   
 Atom       H51          H52          H53          H54          C55     
 Charge    0.13664      0.14464      0.12751      0.13070     -0.15873
   
 Atom       C56          C57          C58          C59          C60     
 Charge   -0.15655     -0.11560      0.13865     -0.27069     -0.07443
   
 Atom       H61          H62          H63          H64          H65     
 Charge    0.14255      0.14652      0.08615      0.16188      0.12582
   
 Atom       C66          C67          C68          C69          C70     
 Charge   -0.16965     -0.13293     -0.10002      0.08222     -0.27900
   
 Atom       C71          H72          H73          H74          H75     
 Charge   -0.04906      0.14123      0.12168      0.09587      0.14189
   
 Atom       H76          C77          C78          C79          C80     
 Charge    0.12050     -0.11052     -0.17401     -0.14726      0.04334
   
 Atom       C81          C82          H83          H84          H85     
 Charge   -0.03102     -0.19471      0.13703      0.12830      0.12728
   
 Atom       H86          H87          C88          C89          C90     
 Charge    0.09100      0.14049     -0.12393     -0.19474     -0.08345
   
 Atom       C91          C92          C93          H94          H95     
 Charge    0.02830     -0.14764     -0.13969      0.13693      0.14951
   
 Atom       H96          H97          H98          O99          O100    
 Charge    0.10964      0.09046      0.14082     -0.33052     -0.27869
   
 Atom       P101         O102         N103         H104         C105    
 Charge    1.03093     -0.59459     -0.75153      0.50381      0.22766
   
 Atom       C106         C107         C108         C109         C110    
 Charge   -0.20597     -0.11471     -0.19088      0.29640     -0.36306
   
 Atom       C111         H112         H113         H114         H115    
 Charge   -0.06235      0.15364      0.13955      0.05441      0.22791
   
 Atom       H116         H117         N118         S119         O120    
 Charge    0.13243      0.03382     -0.63622      0.80686     -0.43434
   
 Atom       O121         C122         F123         F124         F125    
 Charge   -0.55996      0.35218     -0.08581     -0.11045     -0.12856
   
 Atom       C126         C127         C128         C129         N130    
 Charge    0.25220     -0.26423     -0.21210      0.05299     -0.04874
   
 Atom       H131         H132         H133         H134         H135    
 Charge    0.05002      0.25162      0.20363      0.17817      0.22923
   
 Atom       S136         O137         O138         C139         C140    
 Charge    0.73587     -0.45733     -0.49532     -0.33396      0.34760
   
 Atom       N141         C142         C143         C144         H145    
 Charge   -0.50400      0.41519     -0.35359      0.07731      0.17602
   
 Atom       H146         H147         H148    
 Charge    0.03413      0.20014      0.13986
  
  sum of atomic charges:     0.000000
   
 RMS Error   1.01E-03 hartrees
 
  Peak memory usage:    816 Mb
  
  end of program ch
   
 Time(ch)  user:       16.9  user+sys:       16.9  wallclock:       19.5
  
  start of program post
  
  Writing input files for PBF
  Peak memory usage:    759 Mb
  
  end of program post
   
 Time(post)  user:        0.6  user+sys:        0.6  wallclock:        3.1

  start of program pbf

Pbf Version 4.10

Molecular surface area:      834.34935   [A2]
Reaction field energy:       -21.47381   [kT]
  Peak memory usage: 722 Mb

  end of program pbf

 Time(pbf)  user:        6.0  user+sys:        6.0  wallclock:        6.1
  
  start of program solv
  
   number of surface charges from PBF   13186
   sum of surface charges     -0.00024
   
  nuclear repulsion energy.......   20890.753310998 hartrees
  Peak memory usage:    894 Mb
  
  end of program solv
   
 Time(solv)  user:       31.9  user+sys:       31.9  wallclock:       32.0
  
  start of program scf
  
 Energy computed with NOPS off.
  
       i  u  d  i  g                   
       t  p  i  c  r                                 RMS    maximum
       e  d  i  u  i                       energy  density   DIIS  
       r  t  s  t  d       total energy    change  change    error 
  
etot    1  N  N  1  U   -5575.62221826871           6.3E-06  1.0E-04
etot    2  N  N  1  U   -5575.62222200505  3.7E-06  0.0E+00  0.0E+00
  
  
 Energy components, in hartrees:
   (A)  Total zero-electron terms....   20893.69374544061
   (B)    Nuclear-nuclear............   20890.75331099789
   (C)    Nuclear-solvent............       2.94043444272
   (E)  Total one-electron terms.....  -49313.66681784885
   (F)    Electron-nuclear...........  -54846.71856666095
   (G)    Electron-solvent...........      -2.98494584944
   (H)    Kinetic....................    5536.03669466153
   (I)  Total two-electron terms.....   22844.35085040319
   (J)    Coulomb....................   23495.68430386359
   (K)    Exchange+Correlation.......    -651.33345346040
   (L)  Electronic energy............  -26469.31596744566  (E+I)
   (N)  Total quantum mech. energy...   -5575.62222200505  (A+L)
   (O)  Gas phase energy.............   -5575.57923417878
   (P)  Solution phase energy........   -5575.59996630170  (Q+R+S)
   (Q)    Total solute energy........   -5575.57771059834  (N-C-G)
   (R)    Total solvent energy.......      -0.02225570336  (C/2+G/2)
   (S)    Solute cavity energy.......       0.00000000000
   (U)  Reorganization energy........       0.00152358044  (Q-O)
   (V)  Solvation energy.............      -0.02073212291  (P-O)
  
 SCFE:  Solution phase energy: DFT(m06-2x)      -5575.59996630170 hartrees
        SCF iterations:   2
  
 
 HOMO energy:    -0.27706
 LUMO energy:    -0.05612
 
  Orbital energies (hartrees): 
   -75.80796   -55.40984   -49.61994   -48.45249   -42.28152   -33.00807
   -31.11249   -29.57042   -27.13696   -26.84753   -19.33539   -19.30640
   -18.98827   -18.01766   -16.08456   -15.95710   -15.81736   -15.79975
   -15.68540   -15.45328   -14.40607   -14.39813   -14.36928   -14.24958
   -14.11751   -13.93527   -13.84101   -13.58973   -13.50782   -13.21835
   -13.09738   -12.83916   -12.83292   -12.51724   -12.49697   -12.38156
   -12.20573   -12.15830   -12.08232   -11.92809   -11.80312   -11.74328
   -11.64581   -11.54710   -11.06607   -11.01256   -10.91236   -10.88363
   -10.87436   -10.85393   -10.84466   -10.81789   -10.71910   -10.71838
   -10.67418   -10.65171   -10.64072   -10.63412   -10.63098   -10.62307
   -10.61784   -10.61505   -10.61212   -10.61138   -10.59555   -10.58932
   -10.57238   -10.55829   -10.54937   -10.54507   -10.53619   -10.52212
   -10.51538   -10.49001   -10.48734   -10.47971   -10.47715   -10.45803
   -10.42557   -10.37345   -10.36788   -10.34457   -10.33809   -10.30016
   -10.24779   -10.20817   -10.17919   -10.15226   -10.09600    -9.96068
    -9.91257    -9.60985    -9.52532    -9.37519    -9.04126    -8.82436
    -8.65499    -8.47308    -8.37695    -8.25789    -7.82451    -6.90393
    -6.68797    -6.58007    -6.57161    -6.37670    -5.94733    -5.65220
    -5.24658    -4.49727    -4.47220    -4.05144    -1.45291    -1.38541
    -1.34258    -1.14929    -1.12888    -1.07468    -1.06465    -1.02611
    -1.00143    -0.96529    -0.94241    -0.93961    -0.93817    -0.93699
    -0.93228    -0.92074    -0.91606    -0.91604    -0.90462    -0.90302
    -0.90131    -0.89617    -0.88981    -0.86721    -0.86357    -0.86139
    -0.85886    -0.85762    -0.85607    -0.85409    -0.83919    -0.83249
    -0.83179    -0.83171    -0.83053    -0.82512    -0.82231    -0.81562
    -0.80980    -0.80825    -0.79884    -0.79683    -0.79218    -0.79017
    -0.77471    -0.77320    -0.77289    -0.77176    -0.75661    -0.75593
    -0.75090    -0.74519    -0.74387    -0.74108    -0.74078    -0.73837
    -0.73823    -0.73756    -0.72750    -0.72144    -0.72115    -0.71895
    -0.71665    -0.71576    -0.70287    -0.68323    -0.68073    -0.67850
    -0.66521    -0.66262    -0.66036    -0.65983    -0.65877    -0.65852
    -0.65764    -0.65627    -0.65405    -0.65251    -0.64892    -0.64456
    -0.63693    -0.63616    -0.63246    -0.63242    -0.62242    -0.62019
    -0.61701    -0.60866    -0.60216    -0.60053    -0.59902    -0.59867
    -0.59626    -0.58636    -0.58470    -0.58379    -0.58348    -0.57664
    -0.57643    -0.57592    -0.57439    -0.57298    -0.57186    -0.57154
    -0.56500    -0.56418    -0.56279    -0.56259    -0.56250    -0.55392
    -0.55121    -0.55092    -0.54781    -0.54461    -0.54257    -0.54151
    -0.53924    -0.53837    -0.53467    -0.53454    -0.53385    -0.53070
    -0.52939    -0.52904    -0.52887    -0.52826    -0.52698    -0.52636
    -0.52366    -0.52275    -0.52222    -0.51858    -0.51509    -0.51386
    -0.51259    -0.51057    -0.51006    -0.50917    -0.50695    -0.50686
    -0.49650    -0.49622    -0.49558    -0.49514    -0.49455    -0.49134
    -0.49072    -0.48745    -0.48692    -0.48474    -0.48437    -0.47947
    -0.47853    -0.47598    -0.47233    -0.47224    -0.47151    -0.46925
    -0.46410    -0.46362    -0.46082    -0.45940    -0.45904    -0.45800
    -0.45713    -0.45618    -0.45545    -0.45521    -0.44951    -0.44920
    -0.44906    -0.44559    -0.44546    -0.44369    -0.44301    -0.44294
    -0.44187    -0.43895    -0.43778    -0.43619    -0.42922    -0.42814
    -0.42781    -0.42674    -0.42542    -0.42460    -0.42443    -0.42336
    -0.42325    -0.41889    -0.41825    -0.41772    -0.41344    -0.41290
    -0.41082    -0.41070    -0.40829    -0.40675    -0.40572    -0.40507
    -0.40493    -0.40425    -0.40182    -0.40153    -0.40151    -0.39586
    -0.37414    -0.36734    -0.36244    -0.36013    -0.35720    -0.35707
    -0.34288    -0.33598    -0.32970    -0.32856    -0.32623    -0.32389
    -0.32355    -0.32045    -0.31592    -0.31312    -0.31164    -0.30904
    -0.30835    -0.30329    -0.29678    -0.27706    -0.05612    -0.02210
    -0.01474    -0.00199     0.00436     0.00528     0.01133     0.01278
     0.02368     0.02466
 
  Peak memory usage:   1029 Mb
  
  end of program scf
   
 Time(scf)  user:     2222.0  user+sys:     2222.0  wallclock:     2243.0
  
  start of program sole
  
    SCRF                   solvation energy
  iteration          Hartrees            kcal/mol
     0               0.0000000            0.0000
     1              -0.0194498          -12.2049
     2              -0.0207321          -13.0096
  
  solvation energy not yet converged... 
  
  Peak memory usage:    813 Mb
  
  end of program sole
   
 Time(sole)  user:        0.1  user+sys:        0.1  wallclock:        0.1
  
  start of program ch
  
  gridpoints used for charge fit        16344
    out of a possible maximum of        16344
  
   Electrostatic potential fitting constrained to reproduce
     total charge:                yes
     dipole moment:               no 
     traceless quadrupole moment: no 
     traceless octapole moment:   no 
  
  Atomic charges from electrostatic potential: 
   
 Atom       C1           C2           C3           C4           H5      
 Charge   -0.21461     -0.45102      0.15864      0.13205      0.21480
   
 Atom       C6           C7           C8           C9           H10     
 Charge   -0.37110      0.04559      0.02701      0.13930      0.17581
   
 Atom       C11          C12          C13          C14          C15     
 Charge    0.11007      0.22217     -0.24119     -0.11836     -0.16087
   
 Atom       C16          H17          H18          H19          H20     
 Charge   -0.15465      0.15216      0.14181      0.15088      0.12201
   
 Atom       C21          C22          C23          C24          C25     
 Charge    0.21222     -0.00852     -0.17633     -0.15432     -0.10897
   
 Atom       C26          H27          H28          H29          H30     
 Charge   -0.24654      0.14386      0.14924      0.14040      0.15849
   
 Atom       Si31         Si32         C33          C34          C35     
 Charge   -0.19368      0.09749     -0.16047     -0.16721     -0.11422
   
 Atom       C36          C37          C38          H39          H40     
 Charge    0.28684     -0.31226     -0.07311      0.14488      0.13134
   
 Atom       H41          H42          H43          C44          C45     
 Charge    0.09112      0.15539      0.12261     -0.13914     -0.13646
   
 Atom       C46          C47          C48          C49          H50     
 Charge   -0.18381      0.14378     -0.16524     -0.14340      0.12087
   
 Atom       H51          H52          H53          H54          C55     
 Charge    0.13717      0.14554      0.12812      0.13079     -0.15796
   
 Atom       C56          C57          C58          C59          C60     
 Charge   -0.15762     -0.11552      0.13768     -0.27111     -0.07443
   
 Atom       H61          H62          H63          H64          H65     
 Charge    0.14305      0.14712      0.08574      0.16234      0.12654
   
 Atom       C66          C67          C68          C69          C70     
 Charge   -0.17010     -0.13426     -0.10149      0.08366     -0.27891
   
 Atom       C71          H72          H73          H74          H75     
 Charge   -0.04862      0.14134      0.12124      0.09590      0.14214
   
 Atom       H76          C77          C78          C79          C80     
 Charge    0.12101     -0.11003     -0.17415     -0.14792      0.04321
   
 Atom       C81          C82          H83          H84          H85     
 Charge   -0.03197     -0.19470      0.13771      0.12880      0.12767
   
 Atom       H86          H87          C88          C89          C90     
 Charge    0.09096      0.14097     -0.12376     -0.19509     -0.08350
   
 Atom       C91          C92          C93          H94          H95     
 Charge    0.02802     -0.14805     -0.13987      0.13756      0.15013
   
 Atom       H96          H97          H98          O99          O100    
 Charge    0.10936      0.09012      0.14141     -0.32978     -0.27747
   
 Atom       P101         O102         N103         H104         C105    
 Charge    1.02741     -0.59237     -0.75058      0.50437      0.22249
   
 Atom       C106         C107         C108         C109         C110    
 Charge   -0.20498     -0.11323     -0.19049      0.29596     -0.36450
   
 Atom       C111         H112         H113         H114         H115    
 Charge   -0.06204      0.15398      0.13957      0.05457      0.22737
   
 Atom       H116         H117         N118         S119         O120    
 Charge    0.13265      0.03508     -0.63616      0.80607     -0.43240
   
 Atom       O121         C122         F123         F124         F125    
 Charge   -0.56146      0.35240     -0.08557     -0.11092     -0.12850
   
 Atom       C126         C127         C128         C129         N130    
 Charge    0.25706     -0.26809     -0.20887      0.05514     -0.05236
   
 Atom       H131         H132         H133         H134         H135    
 Charge    0.04878      0.25200      0.20471      0.17903      0.22940
   
 Atom       S136         O137         O138         C139         C140    
 Charge    0.73361     -0.45896     -0.49524     -0.33150      0.34768
   
 Atom       N141         C142         C143         C144         H145    
 Charge   -0.50489      0.41304     -0.35414      0.07821      0.17665
   
 Atom       H146         H147         H148    
 Charge    0.03442      0.20023      0.14102
  
  sum of atomic charges:     0.000000
   
 RMS Error   1.01E-03 hartrees
 
  Peak memory usage:    816 Mb
  
  end of program ch
   
 Time(ch)  user:       16.1  user+sys:       16.1  wallclock:       18.4
  
  start of program post
  
  Writing input files for PBF
  Peak memory usage:    759 Mb
  
  end of program post
   
 Time(post)  user:        0.6  user+sys:        0.6  wallclock:        0.8

  start of program pbf

Pbf Version 4.10

Molecular surface area:      834.34935   [A2]
Reaction field energy:       -21.85420   [kT]
  Peak memory usage: 722 Mb

  end of program pbf

 Time(pbf)  user:        6.0  user+sys:        6.1  wallclock:        6.1
  
  start of program solv
  
   number of surface charges from PBF   13186
   sum of surface charges     -0.00025
   
  nuclear repulsion energy.......   20890.753310998 hartrees
  Peak memory usage:    894 Mb
  
  end of program solv
   
 Time(solv)  user:       32.0  user+sys:       32.0  wallclock:       32.1
  
  start of program scf
  
 Energy computed with NOPS off.
  
       i  u  d  i  g                   
       t  p  i  c  r                                 RMS    maximum
       e  d  i  u  i                       energy  density   DIIS  
       r  t  s  t  d       total energy    change  change    error 
  
etot    1  N  N  1  U   -5575.62260110296           5.2E-06  9.8E-05
etot    2  N  N  1  U   -5575.62258777190 -1.3E-05  0.0E+00  0.0E+00
  
  
 Energy components, in hartrees:
   (A)  Total zero-electron terms....   20893.74710077652
   (B)    Nuclear-nuclear............   20890.75331099789
   (C)    Nuclear-solvent............       2.99378977863
   (E)  Total one-electron terms.....  -49313.35803712482
   (F)    Electron-nuclear...........  -54846.34763543206
   (G)    Electron-solvent...........      -3.03854125769
   (H)    Kinetic....................    5536.02813956492
   (I)  Total two-electron terms.....   22843.98834857641
   (J)    Coulomb....................   23495.32135411774
   (K)    Exchange+Correlation.......    -651.33300554134
   (L)  Electronic energy............  -26469.36968854842  (E+I)
   (N)  Total quantum mech. energy...   -5575.62258777190  (A+L)
   (O)  Gas phase energy.............   -5575.57923417878
   (P)  Solution phase energy........   -5575.60021203237  (Q+R+S)
   (Q)    Total solute energy........   -5575.57783629284  (N-C-G)
   (R)    Total solvent energy.......      -0.02237573953  (C/2+G/2)
   (S)    Solute cavity energy.......       0.00000000000
   (U)  Reorganization energy........       0.00139788594  (Q-O)
   (V)  Solvation energy.............      -0.02097785359  (P-O)
  
 SCFE:  Solution phase energy: DFT(m06-2x)      -5575.60021203237 hartrees
        SCF iterations:   2
  
 
 HOMO energy:    -0.25705
 LUMO energy:    -0.05635
 
  Orbital energies (hartrees): 
   -90.16761   -90.15882   -78.21995   -67.01492   -67.00911   -25.29390
   -25.29308   -25.29299   -19.69875   -19.69419   -19.64614   -19.64378
   -19.63545   -19.62600   -19.61419   -14.84080   -14.79198   -14.79070
   -14.74824   -10.80940   -10.65306   -10.63177   -10.62669   -10.62573
   -10.62571   -10.62127   -10.60475   -10.59927   -10.58519   -10.58290
   -10.57955   -10.57627   -10.57400   -10.57390   -10.57269   -10.57099
   -10.56454   -10.56387   -10.56368   -10.56166   -10.56046   -10.55557
   -10.55533   -10.55458   -10.55449   -10.55411   -10.55364   -10.55349
   -10.55329   -10.55293   -10.55248   -10.55245   -10.55194   -10.55190
   -10.55190   -10.55174   -10.55173   -10.55090   -10.55060   -10.55045
   -10.55044   -10.55027   -10.55012   -10.55007   -10.54980   -10.54946
   -10.54855   -10.54851   -10.54841   -10.54782   -10.54775   -10.54757
   -10.54718   -10.54714   -10.54707   -10.54691   -10.54609   -10.54595
   -10.54471   -10.54446   -10.54241   -10.54088   -10.54056   -10.54030
   -10.54004   -10.53860   -10.53640   -10.53585   -10.53428   -10.53378
   -10.53262   -10.52505    -8.47688    -8.46699    -6.99890    -6.39904
    -6.39849    -6.39755    -6.38883    -6.38862    -6.38836    -5.54564
    -5.54029    -5.11752    -5.11636    -5.11481    -3.85546    -3.85521
    -3.85485    -3.85012    -3.84968    -3.84958    -1.46005    -1.36955
    -1.36758    -1.24061    -1.23592    -1.22127    -1.19301    -1.13115
    -1.12762    -1.10797    -1.09803    -1.07932    -1.03854    -0.99369
    -0.98405    -0.96985    -0.95824    -0.94884    -0.94474    -0.94469
    -0.94114    -0.93967    -0.93346    -0.92444    -0.91902    -0.91754
    -0.91417    -0.89869    -0.89336    -0.88299    -0.85627    -0.84919
    -0.84753    -0.84310    -0.84091    -0.84054    -0.83882    -0.83700
    -0.83590    -0.83399    -0.83356    -0.83124    -0.83039    -0.82853
    -0.82751    -0.82726    -0.82563    -0.82396    -0.81922    -0.80410
    -0.79549    -0.76619    -0.75235    -0.73475    -0.73367    -0.71539
    -0.71006    -0.70606    -0.70037    -0.69698    -0.69360    -0.69178
    -0.68695    -0.68437    -0.68324    -0.68237    -0.68120    -0.67878
    -0.67786    -0.67643    -0.67522    -0.67372    -0.67178    -0.67019
    -0.66690    -0.66488    -0.66269    -0.66104    -0.65582    -0.65416
    -0.64866    -0.64411    -0.63911    -0.62979    -0.61125    -0.60590
    -0.60280    -0.60147    -0.59802    -0.58634    -0.58451    -0.58354
    -0.58167    -0.57970    -0.57766    -0.57708    -0.57331    -0.56922
    -0.56683    -0.56410    -0.56267    -0.56107    -0.56069    -0.55049
    -0.54665    -0.54319    -0.54165    -0.53993    -0.53832    -0.53520
    -0.53044    -0.52956    -0.52948    -0.52698    -0.52445    -0.52231
    -0.52056    -0.51967    -0.51851    -0.51762    -0.51500    -0.51394
    -0.51162    -0.50736    -0.50541    -0.50455    -0.50306    -0.50182
    -0.50131    -0.50033    -0.49871    -0.49765    -0.49711    -0.49573
    -0.49391    -0.49161    -0.49139    -0.49023    -0.48945    -0.48725
    -0.48565    -0.48508    -0.48407    -0.48180    -0.48166    -0.47977
    -0.47800    -0.47745    -0.47293    -0.47099    -0.46781    -0.45808
    -0.45712    -0.45686    -0.45540    -0.45231    -0.45013    -0.44749
    -0.44409    -0.44309    -0.43860    -0.43574    -0.43091    -0.42945
    -0.42761    -0.42648    -0.42560    -0.42231    -0.42125    -0.41948
    -0.41687    -0.41566    -0.41150    -0.40926    -0.40730    -0.40426
    -0.40038    -0.39917    -0.39739    -0.39592    -0.39416    -0.39215
    -0.39173    -0.39092    -0.39059    -0.39048    -0.38958    -0.38721
    -0.38533    -0.38425    -0.38084    -0.38063    -0.37875    -0.37293
    -0.36418    -0.36047    -0.35862    -0.35511    -0.35290    -0.34823
    -0.34728    -0.34582    -0.34273    -0.34144    -0.33952    -0.33763
    -0.33518    -0.33035    -0.32751    -0.32199    -0.30764    -0.30626
    -0.30579    -0.30314    -0.30190    -0.30135    -0.29924    -0.29890
    -0.29758    -0.29527    -0.29447    -0.29403    -0.29024    -0.28748
    -0.28676    -0.28250    -0.27636    -0.25705    -0.05635    -0.02265
    -0.01546    -0.00265     0.00392     0.00466     0.01090     0.01217
     0.02324     0.02419
 
  Peak memory usage:   1029 Mb
  
  end of program scf
   
 Time(scf)  user:     2217.2  user+sys:     2217.2  wallclock:     2239.2
  
  start of program sole
  
    SCRF                   solvation energy
  iteration          Hartrees            kcal/mol
     0               0.0000000            0.0000
     1              -0.0194498          -12.2049
     2              -0.0207321          -13.0096
     3              -0.0209779          -13.1638
  
  solvation energy not yet converged... 
  
[...]
       t  p  i  c  r                                 RMS    maximum
       e  d  i  u  i                       energy  density   DIIS  
       r  t  s  t  d       total energy    change  change    error 
  
etot    1  N  N  1  U   -5575.62262437341           1.3E-05  2.5E-04
etot    2  N  Y  1  U   -5575.62251543521 -1.1E-04  8.2E-06  4.2E-04
etot    3  N  Y  1  U   -5575.62268140724  1.7E-04  3.1E-07  1.6E-05
etot    4  N  N  1  U   -5575.62268156095  1.5E-07  0.0E+00  0.0E+00
  
  
 Energy components, in hartrees:
   (A)  Total zero-electron terms....   20893.76841259414
   (B)    Nuclear-nuclear............   20890.75331099789
   (C)    Nuclear-solvent............       3.01510159626
   (E)  Total one-electron terms.....  -49313.61930120856
   (F)    Electron-nuclear...........  -54846.58964825400
   (G)    Electron-solvent...........      -3.06003784323
   (H)    Kinetic....................    5536.03038488867
   (I)  Total two-electron terms.....   22844.22820705346
   (J)    Coulomb....................   23495.56120585583
   (K)    Exchange+Correlation.......    -651.33299880236
   (L)  Electronic energy............  -26469.39109415509  (E+I)
   (N)  Total quantum mech. energy...   -5575.62268156095  (A+L)
   (O)  Gas phase energy.............   -5575.57923417878
   (P)  Solution phase energy........   -5575.60021343746  (Q+R+S)
   (Q)    Total solute energy........   -5575.57774531398  (N-C-G)
   (R)    Total solvent energy.......      -0.02246812349  (C/2+G/2)
   (S)    Solute cavity energy.......       0.00000000000
   (U)  Reorganization energy........       0.00148886480  (Q-O)
   (V)  Solvation energy.............      -0.02097925868  (P-O)
  
 SCFE:  Solution phase energy: DFT(m06-2x)      -5575.60021343746 hartrees
        SCF iterations:   4
  
 
 HOMO energy:    -0.25671
 LUMO energy:    -0.05616
 
  Orbital energies (hartrees): 
   -90.16638   -90.15798   -78.21921   -67.01395   -67.00860   -25.29328
   -25.29304   -25.29264   -19.69754   -19.69384   -19.64667   -19.64343
   -19.63368   -19.62756   -19.61493   -14.83969   -14.79039   -14.78904
   -14.74660   -10.80895   -10.65427   -10.63061   -10.62487   -10.62474
   -10.62406   -10.61995   -10.60505   -10.59821   -10.58638   -10.58363
   -10.57903   -10.57543   -10.57504   -10.57368   -10.57190   -10.56997
   -10.56479   -10.56322   -10.56227   -10.56120   -10.56033   -10.55580
   -10.55553   -10.55462   -10.55416   -10.55382   -10.55381   -10.55362
   -10.55344   -10.55321   -10.55302   -10.55283   -10.55237   -10.55214
   -10.55199   -10.55195   -10.55150   -10.55092   -10.55085   -10.55085
   -10.55084   -10.55060   -10.55035   -10.55008   -10.54972   -10.54903
   -10.54894   -10.54817   -10.54784   -10.54784   -10.54773   -10.54762
   -10.54759   -10.54734   -10.54684   -10.54678   -10.54654   -10.54511
   -10.54393   -10.54342   -10.54220   -10.54113   -10.54005   -10.53989
   -10.53912   -10.53889   -10.53516   -10.53460   -10.53337   -10.53301
   -10.53189   -10.52496    -8.47571    -8.46618    -6.99817    -6.39787
    -6.39732    -6.39638    -6.38802    -6.38780    -6.38755    -5.54468
    -5.53979    -5.11679    -5.11563    -5.11408    -3.85451    -3.85425
    -3.85390    -3.84963    -3.84917    -3.84908    -1.45967    -1.36926
    -1.36711    -1.24000    -1.23518    -1.22069    -1.19222    -1.13082
    -1.12721    -1.10757    -1.09791    -1.07854    -1.03734    -0.99288
    -0.98349    -0.96957    -0.95798    -0.94871    -0.94465    -0.94458
    -0.94108    -0.93953    -0.93318    -0.92420    -0.91904    -0.91731
    -0.91391    -0.89823    -0.89295    -0.88260    -0.85601    -0.84891
    -0.84724    -0.84288    -0.84071    -0.84036    -0.83873    -0.83685
    -0.83582    -0.83389    -0.83329    -0.83106    -0.83016    -0.82816
    -0.82743    -0.82701    -0.82544    -0.82373    -0.81887    -0.80378
    -0.79495    -0.76563    -0.75194    -0.73434    -0.73334    -0.71497
    -0.70968    -0.70572    -0.70000    -0.69667    -0.69322    -0.69143
    -0.68665    -0.68399    -0.68304    -0.68223    -0.68092    -0.67857
    -0.67775    -0.67619    -0.67505    -0.67349    -0.67169    -0.66996
    -0.66675    -0.66471    -0.66254    -0.66092    -0.65552    -0.65382
    -0.64832    -0.64354    -0.63856    -0.62935    -0.61097    -0.60560
    -0.60239    -0.60110    -0.59761    -0.58607    -0.58412    -0.58339
    -0.58155    -0.57955    -0.57749    -0.57675    -0.57308    -0.56893
    -0.56649    -0.56398    -0.56242    -0.56072    -0.56041    -0.55020
    -0.54629    -0.54285    -0.54124    -0.53964    -0.53798    -0.53486
    -0.53014    -0.52930    -0.52904    -0.52663    -0.52412    -0.52193
    -0.52024    -0.51953    -0.51838    -0.51753    -0.51474    -0.51351
    -0.51140    -0.50715    -0.50518    -0.50428    -0.50278    -0.50162
    -0.50117    -0.50009    -0.49852    -0.49750    -0.49693    -0.49557
    -0.49365    -0.49144    -0.49104    -0.48998    -0.48918    -0.48715
    -0.48555    -0.48491    -0.48386    -0.48171    -0.48153    -0.47959
    -0.47791    -0.47725    -0.47267    -0.47073    -0.46751    -0.45799
    -0.45700    -0.45670    -0.45506    -0.45211    -0.44986    -0.44736
    -0.44385    -0.44287    -0.43820    -0.43553    -0.43075    -0.42926
    -0.42740    -0.42627    -0.42534    -0.42215    -0.42101    -0.41930
    -0.41644    -0.41533    -0.41112    -0.40894    -0.40716    -0.40396
    -0.40014    -0.39888    -0.39725    -0.39571    -0.39390    -0.39195
    -0.39163    -0.39074    -0.39035    -0.39011    -0.38935    -0.38697
    -0.38508    -0.38386    -0.38060    -0.38032    -0.37828    -0.37266
    -0.36388    -0.36001    -0.35835    -0.35476    -0.35272    -0.34782
    -0.34662    -0.34540    -0.34243    -0.34099    -0.33888    -0.33723
    -0.33449    -0.32978    -0.32711    -0.32141    -0.30749    -0.30603
    -0.30557    -0.30301    -0.30182    -0.30121    -0.29903    -0.29878
    -0.29735    -0.29507    -0.29431    -0.29381    -0.28987    -0.28719
    -0.28639    -0.28225    -0.27607    -0.25671    -0.05616    -0.02233
    -0.01509    -0.00230     0.00413     0.00500     0.01116     0.01249
     0.02348     0.02445
 
  Peak memory usage:   1029 Mb
  
  end of program scf
   
 Time(scf)  user:     6641.7  user+sys:     6641.7  wallclock:     6701.1
  
  start of program sole
  
    SCRF                   solvation energy
  iteration          Hartrees            kcal/mol
     0               0.0000000            0.0000
     1              -0.0194498          -12.2049
     2              -0.0207321          -13.0096
     3              -0.0209779          -13.1638
     4              -0.0207694          -13.0330
     5              -0.0209793          -13.1647
  
  solvation energy not yet converged... 
  
  Peak memory usage:    813 Mb
  
  end of program sole
   
 Time(sole)  user:        0.1  user+sys:        0.1  wallclock:        0.1
  
  start of program ch
  
  gridpoints used for charge fit        16344
    out of a possible maximum of        16344
  
   Electrostatic potential fitting constrained to reproduce
     total charge:                yes
     dipole moment:               no 
     traceless quadrupole moment: no 
     traceless octapole moment:   no 
  
  Atomic charges from electrostatic potential: 
   
 Atom       C1           C2           C3           C4           H5      
 Charge   -0.21363     -0.45152      0.15971      0.13128      0.21476
   
 Atom       C6           C7           C8           C9           H10     
 Charge   -0.37141      0.04624      0.02683      0.13954      0.17582
   
 Atom       C11          C12          C13          C14          C15     
 Charge    0.10940      0.22212     -0.24119     -0.11877     -0.16160
   
 Atom       C16          H17          H18          H19          H20     
 Charge   -0.15389      0.15218      0.14202      0.15110      0.12172
   
 Atom       C21          C22          C23          C24          C25     
 Charge    0.21186     -0.00764     -0.17639     -0.15479     -0.10956
   
 Atom       C26          H27          H28          H29          H30     
 Charge   -0.24631      0.14392      0.14937      0.14059      0.15844
   
 Atom       Si31         Si32         C33          C34          C35     
 Charge   -0.19367      0.09731     -0.16103     -0.16770     -0.11461
   
 Atom       C36          C37          C38          H39          H40     
 Charge    0.28816     -0.31229     -0.07289      0.14500      0.13156
   
 Atom       H41          H42          H43          C44          C45     
 Charge    0.09100      0.15538      0.12246     -0.13919     -0.13733
   
 Atom       C46          C47          C48          C49          H50     
 Charge   -0.18321      0.14368     -0.16397     -0.14413      0.12093
   
 Atom       H51          H52          H53          H54          C55     
 Charge    0.13738      0.14524      0.12779      0.13083     -0.15849
   
 Atom       C56          C57          C58          C59          C60     
 Charge   -0.15750     -0.11572      0.13855     -0.27125     -0.07471
   
 Atom       H61          H62          H63          H64          H65     
 Charge    0.14320      0.14712      0.08568      0.16230      0.12665
   
 Atom       C66          C67          C68          C69          C70     
 Charge   -0.17037     -0.13360     -0.10113      0.08379     -0.27943
   
 Atom       C71          H72          H73          H74          H75     
 Charge   -0.04895      0.14135      0.12096      0.09591      0.14212
   
 Atom       H76          C77          C78          C79          C80     
 Charge    0.12113     -0.11042     -0.17442     -0.14801      0.04374
   
 Atom       C81          C82          H83          H84          H85     
 Charge   -0.03127     -0.19509      0.13790      0.12883      0.12755
   
 Atom       H86          H87          C88          C89          C90     
 Charge    0.09080      0.14101     -0.12410     -0.19520     -0.08342
   
 Atom       C91          C92          C93          H94          H95     
 Charge    0.02833     -0.14781     -0.14015      0.13768      0.15023
   
 Atom       H96          H97          H98          O99          O100    
 Charge    0.10927      0.08993      0.14150     -0.32946     -0.27791
   
 Atom       P101         O102         N103         H104         C105    
 Charge    1.02878     -0.59345     -0.75018      0.50452      0.22324
   
 Atom       C106         C107         C108         C109         C110    
 Charge   -0.20580     -0.11413     -0.19093      0.29765     -0.36422
   
 Atom       C111         H112         H113         H114         H115    
 Charge   -0.06228      0.15428      0.13980      0.05458      0.22727
   
 Atom       H116         H117         N118         S119         O120    
 Charge    0.13273      0.03484     -0.63594      0.80700     -0.43351
   
 Atom       O121         C122         F123         F124         F125    
 Charge   -0.56136      0.35199     -0.08541     -0.11079     -0.12869
   
 Atom       C126         C127         C128         C129         N130    
 Charge    0.25671     -0.26702     -0.21065      0.05434     -0.05205
   
 Atom       H131         H132         H133         H134         H135    
 Charge    0.04921      0.25183      0.20540      0.17913      0.22964
   
 Atom       S136         O137         O138         C139         C140    
 Charge    0.73448     -0.45960     -0.49613     -0.33246      0.34758
   
 Atom       N141         C142         C143         C144         H145    
 Charge   -0.50465      0.41404     -0.35390      0.07735      0.17684
   
 Atom       H146         H147         H148    
 Charge    0.03433      0.20013      0.14145
  
  sum of atomic charges:     0.000000
   
 RMS Error   1.01E-03 hartrees
 
  Peak memory usage:    816 Mb
  
  end of program ch
   
 Time(ch)  user:       16.4  user+sys:       16.4  wallclock:       17.6
  
  start of program post
  
  Writing input files for PBF
  Peak memory usage:    759 Mb
  
  end of program post
   
 Time(post)  user:        0.7  user+sys:        0.7  wallclock:        0.8

  start of program pbf

Pbf Version 4.10

Molecular surface area:      834.34935   [A2]
Reaction field energy:       -21.83324   [kT]
  Peak memory usage: 722 Mb

  end of program pbf

 Time(pbf)  user:        6.0  user+sys:        6.0  wallclock:        6.0
  
  start of program solv
  
   number of surface charges from PBF   13186
   sum of surface charges     -0.00024
   
  nuclear repulsion energy.......   20890.753310998 hartrees
  Peak memory usage:    894 Mb
  
  end of program solv
   
 Time(solv)  user:       31.9  user+sys:       31.9  wallclock:       32.0
  
  start of program scf
  
 Energy computed with NOPS off.
  
       i  u  d  i  g                   
       t  p  i  c  r                                 RMS    maximum
       e  d  i  u  i                       energy  density   DIIS  
       r  t  s  t  d       total energy    change  change    error 
  
etot    1  N  N  1  U   -5575.62259147909           7.1E-07  1.2E-05
etot    2  N  N  1  U   -5575.62259152907  5.0E-08  0.0E+00  0.0E+00
  
  
 Energy components, in hartrees:
   (A)  Total zero-electron terms....   20893.73907643556
   (B)    Nuclear-nuclear............   20890.75331099789
   (C)    Nuclear-solvent............       2.98576543767
   (E)  Total one-electron terms.....  -49313.55959921001
   (F)    Electron-nuclear...........  -54846.55920252702
   (G)    Electron-solvent...........      -3.03058307651
   (H)    Kinetic....................    5536.03018639351
   (I)  Total two-electron terms.....   22844.19793124539
   (J)    Coulomb....................   23495.53089157480
   (K)    Exchange+Correlation.......    -651.33296032941
   (L)  Electronic energy............  -26469.36166796463  (E+I)
   (N)  Total quantum mech. energy...   -5575.62259152907  (A+L)
   (O)  Gas phase energy.............   -5575.57923417878
   (P)  Solution phase energy........   -5575.60018270965  (Q+R+S)
   (Q)    Total solute energy........   -5575.57777389023  (N-C-G)
   (R)    Total solvent energy.......      -0.02240881942  (C/2+G/2)
   (S)    Solute cavity energy.......       0.00000000000
   (U)  Reorganization energy........       0.00146028855  (Q-O)
   (V)  Solvation energy.............      -0.02094853087  (P-O)
  
 SCFE:  Solution phase energy: DFT(m06-2x)      -5575.60018270965 hartrees
        SCF iterations:   2
  
 
 HOMO energy:    -0.25672
 LUMO energy:    -0.05616
 
  Orbital energies (hartrees): 
   -90.16646   -90.15798   -78.21918   -67.01403   -67.00858   -25.29330
   -25.29302   -25.29258   -19.69754   -19.69375   -19.64656   -19.64353
   -19.63390   -19.62742   -19.61490   -14.83971   -14.79048   -14.78913
   -14.74659   -10.80894   -10.65415   -10.63061   -10.62503   -10.62469
   -10.62415   -10.62004   -10.60498   -10.59835   -10.58627   -10.58358
   -10.57911   -10.57540   -10.57490   -10.57368   -10.57194   -10.56994
   -10.56482   -10.56332   -10.56239   -10.56130   -10.56041   -10.55580
   -10.55554   -10.55459   -10.55421   -10.55383   -10.55382   -10.55355
   -10.55338   -10.55326   -10.55297   -10.55272   -10.55237   -10.55209
   -10.55196   -10.55188   -10.55151   -10.55088   -10.55084   -10.55083
   -10.55081   -10.55060   -10.55033   -10.55004   -10.54967   -10.54916
   -10.54889   -10.54817   -10.54780   -10.54778   -10.54768   -10.54765
   -10.54760   -10.54727   -10.54683   -10.54675   -10.54648   -10.54511
   -10.54398   -10.54350   -10.54220   -10.54101   -10.54014   -10.53990
   -10.53917   -10.53882   -10.53525   -10.53468   -10.53337   -10.53309
   -10.53186   -10.52487    -8.47579    -8.46618    -6.99814    -6.39794
    -6.39740    -6.39645    -6.38802    -6.38780    -6.38755    -5.54476
    -5.53976    -5.11676    -5.11560    -5.11405    -3.85459    -3.85433
    -3.85398    -3.84960    -3.84915    -3.84906    -1.45965    -1.36924
    -1.36709    -1.24003    -1.23515    -1.22070    -1.19220    -1.13081
    -1.12723    -1.10758    -1.09788    -1.07858    -1.03741    -0.99287
    -0.98350    -0.96959    -0.95799    -0.94871    -0.94463    -0.94458
    -0.94105    -0.93953    -0.93316    -0.92419    -0.91903    -0.91733
    -0.91392    -0.89825    -0.89297    -0.88262    -0.85603    -0.84892
    -0.84726    -0.84287    -0.84071    -0.84035    -0.83873    -0.83685
    -0.83580    -0.83387    -0.83329    -0.83107    -0.83016    -0.82815
    -0.82740    -0.82701    -0.82544    -0.82371    -0.81886    -0.80379
    -0.79498    -0.76562    -0.75195    -0.73434    -0.73335    -0.71498
    -0.70968    -0.70572    -0.70001    -0.69668    -0.69322    -0.69145
    -0.68664    -0.68397    -0.68304    -0.68223    -0.68092    -0.67856
    -0.67772    -0.67619    -0.67505    -0.67350    -0.67167    -0.66996
    -0.66676    -0.66468    -0.66254    -0.66089    -0.65551    -0.65382
    -0.64833    -0.64355    -0.63858    -0.62935    -0.61098    -0.60560
    -0.60240    -0.60110    -0.59763    -0.58607    -0.58412    -0.58339
    -0.58154    -0.57954    -0.57748    -0.57676    -0.57306    -0.56894
    -0.56648    -0.56398    -0.56242    -0.56070    -0.56040    -0.55020
    -0.54629    -0.54284    -0.54125    -0.53963    -0.53799    -0.53487
    -0.53015    -0.52931    -0.52904    -0.52664    -0.52411    -0.52192
    -0.52024    -0.51953    -0.51838    -0.51751    -0.51475    -0.51351
    -0.51138    -0.50714    -0.50518    -0.50427    -0.50278    -0.50162
    -0.50115    -0.50010    -0.49853    -0.49748    -0.49693    -0.49557
    -0.49364    -0.49144    -0.49105    -0.48996    -0.48919    -0.48715
    -0.48554    -0.48491    -0.48387    -0.48169    -0.48153    -0.47958
    -0.47789    -0.47724    -0.47266    -0.47072    -0.46751    -0.45799
    -0.45700    -0.45670    -0.45507    -0.45210    -0.44987    -0.44736
    -0.44384    -0.44287    -0.43820    -0.43553    -0.43075    -0.42926
    -0.42739    -0.42627    -0.42533    -0.42213    -0.42100    -0.41930
    -0.41646    -0.41533    -0.41112    -0.40894    -0.40716    -0.40396
    -0.40014    -0.39889    -0.39726    -0.39571    -0.39391    -0.39195
    -0.39160    -0.39073    -0.39033    -0.39013    -0.38934    -0.38697
    -0.38508    -0.38388    -0.38058    -0.38032    -0.37830    -0.37266
    -0.36387    -0.36004    -0.35835    -0.35477    -0.35272    -0.34782
    -0.34666    -0.34542    -0.34242    -0.34102    -0.33891    -0.33721
    -0.33449    -0.32978    -0.32712    -0.32144    -0.30750    -0.30603
    -0.30558    -0.30300    -0.30180    -0.30121    -0.29904    -0.29876
    -0.29735    -0.29507    -0.29429    -0.29381    -0.28988    -0.28717
    -0.28640    -0.28224    -0.27607    -0.25672    -0.05616    -0.02235
    -0.01511    -0.00231     0.00413     0.00500     0.01115     0.01250
     0.02348     0.02445
 
  Peak memory usage:   1029 Mb
  
  end of program scf
   
 Time(scf)  user:     2223.5  user+sys:     2223.5  wallclock:     2245.1
  
  start of program sole
  
    SCRF                   solvation energy
  iteration          Hartrees            kcal/mol
     0               0.0000000            0.0000
     1              -0.0194498          -12.2049
     2              -0.0207321          -13.0096
     3              -0.0209779          -13.1638
     4              -0.0207694          -13.0330
     5              -0.0209793          -13.1647
     6              -0.0209485          -13.1454
  
  stopping: solvation energy converged
  
  iterations:   6    sfinal:    -13.1454 kcal/mol
  
  Peak memory usage:    813 Mb
  
  end of program sole
   
 Time(sole)  user:        0.1  user+sys:        0.1  wallclock:        0.1
  
  start of program post
  
  Writing input files for PBF
  Peak memory usage:    759 Mb
  
  end of program post
   
 Time(post)  user:        0.6  user+sys:        0.6  wallclock:        0.9

 Total cpu seconds     user:   57445.284   user+sys:   57445.284
  
 Total elapsed time:    58140 seconds

Job Type-I-Z-sulfonyl-bind-3-chkp-unrestrained-IRC-min-disp-2-SPE completed on tethys at Tue Mar 28 03:34:33 2017
